<?xml version="1.0" encoding="UTF-8"?>

<!-- generated on 2023-04-17 17:08:29 by Eclipse SUMO GUI Version v1_16_0+0802-cb0bb8ac9af
<configuration xmlns:xsi="http://www.w3.org/2001/XMLSchema-instance" xsi:noNamespaceSchemaLocation="http://sumo.dlr.de/xsd/sumoConfiguration.xsd">

    <input>
        <net-file value="/home/yuwz/graduation_design/graduation_design/DDPG5/rou_net2/intersection1.net.xml"/>
        <route-files value="/home/yuwz/graduation_design/graduation_design/DDPG5/rou_net2/intersection1.rou.xml"/>
    </input>

    <output>
        <tripinfo-output value="/home/yuwz/graduation_design/graduation_design/DDPG5/rou_net2/tripinfo.xml"/>
    </output>

    <time>
        <begin value="0"/>
        <end value="3600"/>
        <step-length value="1"/>
    </time>

    <processing>
        <waiting-time-memory value="3600"/>
    </processing>

    <report>
        <no-step-log value="true"/>
    </report>

    <traci_server>
        <remote-port value="54117"/>
    </traci_server>

</configuration>
-->

<tripinfos xmlns:xsi="http://www.w3.org/2001/XMLSchema-instance" xsi:noNamespaceSchemaLocation="http://sumo.dlr.de/xsd/tripinfo_file.xsd">
    <tripinfo id="E2W_1" depart="23.00" departLane="EW0_0" departPos="5.00" departSpeed="10.00" departDelay="0.00" arrival="190.00" arrivalLane="EW1_0" arrivalPos="892.80" arrivalSpeed="20.00" duration="167.00" routeLength="1795.00" waitingTime="42.00" waitingCount="1" stopTime="0.00" timeLoss="76.96" rerouteNo="0" devices="tripinfo_E2W_1 battery_E2W_1" vType="ego_car" speedFactor="1.06" vaporized=""/>
    <tripinfo id="W2E_2" depart="49.00" departLane="WE0_0" departPos="5.00" departSpeed="10.00" departDelay="0.00" arrival="192.00" arrivalLane="WE1_0" arrivalPos="892.80" arrivalSpeed="18.77" duration="143.00" routeLength="1795.00" waitingTime="26.00" waitingCount="1" stopTime="0.00" timeLoss="47.05" rerouteNo="0" devices="tripinfo_W2E_2 battery_W2E_2" vType="ego_car" speedFactor="0.94" vaporized=""/>
    <tripinfo id="W2E_3" depart="56.00" departLane="WE0_0" departPos="5.00" departSpeed="10.00" departDelay="0.00" arrival="197.00" arrivalLane="WE1_0" arrivalPos="892.80" arrivalSpeed="20.00" duration="141.00" routeLength="1795.00" waitingTime="22.00" waitingCount="1" stopTime="0.00" timeLoss="50.30" rerouteNo="0" devices="tripinfo_W2E_3 battery_W2E_3" vType="ego_car" speedFactor="1.01" vaporized=""/>
    <tripinfo id="E2W_4" depart="119.00" departLane="EW0_0" departPos="5.00" departSpeed="10.00" departDelay="0.00" arrival="276.00" arrivalLane="EW1_0" arrivalPos="892.80" arrivalSpeed="20.00" duration="157.00" routeLength="1795.00" waitingTime="19.00" waitingCount="1" stopTime="0.00" timeLoss="67.01" rerouteNo="0" devices="tripinfo_E2W_4 battery_E2W_4" vType="ego_car" speedFactor="1.08" vaporized=""/>
    <tripinfo id="W2E_5" depart="134.00" departLane="WE0_0" departPos="5.00" departSpeed="10.00" departDelay="0.00" arrival="277.00" arrivalLane="WE1_0" arrivalPos="892.80" arrivalSpeed="20.00" duration="143.00" routeLength="1795.00" waitingTime="24.00" waitingCount="1" stopTime="0.00" timeLoss="53.05" rerouteNo="0" devices="tripinfo_W2E_5 battery_W2E_5" vType="ego_car" speedFactor="1.03" vaporized=""/>
    <tripinfo id="W2E_7" depart="172.00" departLane="WE0_0" departPos="5.00" departSpeed="10.00" departDelay="0.00" arrival="279.00" arrivalLane="WE1_0" arrivalPos="892.80" arrivalSpeed="20.00" duration="107.00" routeLength="1795.00" waitingTime="0.00" waitingCount="0" stopTime="0.00" timeLoss="16.96" rerouteNo="0" devices="tripinfo_W2E_7 battery_W2E_7" vType="ego_car" speedFactor="1.05" vaporized=""/>
    <tripinfo id="E2W_6" depart="136.00" departLane="EW0_0" departPos="5.00" departSpeed="10.00" departDelay="0.00" arrival="289.00" arrivalLane="EW1_0" arrivalPos="892.80" arrivalSpeed="16.62" duration="153.00" routeLength="1795.00" waitingTime="19.00" waitingCount="1" stopTime="0.00" timeLoss="44.46" rerouteNo="0" devices="tripinfo_E2W_6 battery_E2W_6" vType="ego_car" speedFactor="0.83" vaporized=""/>
    <tripinfo id="W2E_8" depart="183.00" departLane="WE0_0" departPos="5.00" departSpeed="10.00" departDelay="0.00" arrival="295.00" arrivalLane="WE1_0" arrivalPos="892.80" arrivalSpeed="17.72" duration="112.00" routeLength="1795.00" waitingTime="0.00" waitingCount="0" stopTime="0.00" timeLoss="10.63" rerouteNo="0" devices="tripinfo_W2E_8 battery_W2E_8" vType="ego_car" speedFactor="0.89" vaporized=""/>
    <tripinfo id="W2E_9" depart="188.00" departLane="WE0_0" departPos="5.00" departSpeed="10.00" departDelay="0.00" arrival="298.00" arrivalLane="WE1_0" arrivalPos="892.80" arrivalSpeed="18.76" duration="110.00" routeLength="1795.00" waitingTime="0.00" waitingCount="0" stopTime="0.00" timeLoss="13.89" rerouteNo="0" devices="tripinfo_W2E_9 battery_W2E_9" vType="ego_car" speedFactor="0.94" vaporized=""/>
    <tripinfo id="E2W_11" depart="213.00" departLane="EW0_0" departPos="5.00" departSpeed="10.00" departDelay="0.00" arrival="308.00" arrivalLane="EW1_0" arrivalPos="892.80" arrivalSpeed="20.00" duration="95.00" routeLength="1795.00" waitingTime="0.00" waitingCount="0" stopTime="0.00" timeLoss="5.01" rerouteNo="0" devices="tripinfo_E2W_11 battery_E2W_11" vType="ego_car" speedFactor="1.09" vaporized=""/>
    <tripinfo id="W2E_10" depart="206.00" departLane="WE0_0" departPos="5.00" departSpeed="10.00" departDelay="0.00" arrival="317.00" arrivalLane="WE1_0" arrivalPos="892.80" arrivalSpeed="17.14" duration="111.00" routeLength="1795.00" waitingTime="0.00" waitingCount="0" stopTime="0.00" timeLoss="5.96" rerouteNo="0" devices="tripinfo_W2E_10 battery_W2E_10" vType="ego_car" speedFactor="0.86" vaporized=""/>
    <tripinfo id="W2E_12" depart="228.00" departLane="WE0_0" departPos="5.00" departSpeed="10.00" departDelay="0.00" arrival="366.00" arrivalLane="WE1_0" arrivalPos="892.80" arrivalSpeed="20.00" duration="138.00" routeLength="1795.00" waitingTime="37.00" waitingCount="1" stopTime="0.00" timeLoss="47.51" rerouteNo="0" devices="tripinfo_W2E_12 battery_W2E_12" vType="ego_car" speedFactor="1.03" vaporized=""/>
    <tripinfo id="W2E_13" depart="275.00" departLane="WE0_0" departPos="5.00" departSpeed="10.00" departDelay="0.00" arrival="368.00" arrivalLane="WE1_0" arrivalPos="892.80" arrivalSpeed="20.00" duration="93.00" routeLength="1795.00" waitingTime="0.00" waitingCount="0" stopTime="0.00" timeLoss="2.38" rerouteNo="0" devices="tripinfo_W2E_13 battery_W2E_13" vType="ego_car" speedFactor="1.05" vaporized=""/>
    <tripinfo id="W2E_14" depart="283.00" departLane="WE0_0" departPos="5.00" departSpeed="10.00" departDelay="0.00" arrival="374.00" arrivalLane="WE1_0" arrivalPos="892.80" arrivalSpeed="20.00" duration="91.00" routeLength="1795.00" waitingTime="0.00" waitingCount="0" stopTime="0.00" timeLoss="1.06" rerouteNo="0" devices="tripinfo_W2E_14 battery_W2E_14" vType="ego_car" speedFactor="1.12" vaporized=""/>
    <tripinfo id="E2W_15" depart="298.00" departLane="EW0_0" departPos="5.00" departSpeed="10.00" departDelay="0.00" arrival="390.00" arrivalLane="EW1_0" arrivalPos="892.80" arrivalSpeed="19.82" duration="92.00" routeLength="1795.00" waitingTime="0.00" waitingCount="0" stopTime="0.00" timeLoss="0.97" rerouteNo="0" devices="tripinfo_E2W_15 battery_E2W_15" vType="ego_car" speedFactor="0.99" vaporized=""/>
    <tripinfo id="E2W_16" depart="299.00" departLane="EW0_0" departPos="5.00" departSpeed="10.00" departDelay="0.00" arrival="397.00" arrivalLane="EW1_0" arrivalPos="892.80" arrivalSpeed="18.54" duration="98.00" routeLength="1795.00" waitingTime="0.00" waitingCount="0" stopTime="0.00" timeLoss="1.11" rerouteNo="0" devices="tripinfo_E2W_16 battery_E2W_16" vType="ego_car" speedFactor="0.93" vaporized=""/>
    <tripinfo id="W2E_17" depart="299.00" departLane="WE0_0" departPos="5.00" departSpeed="10.00" departDelay="0.00" arrival="402.00" arrivalLane="WE1_0" arrivalPos="892.80" arrivalSpeed="17.57" duration="103.00" routeLength="1795.00" waitingTime="0.00" waitingCount="0" stopTime="0.00" timeLoss="0.62" rerouteNo="0" devices="tripinfo_W2E_17 battery_W2E_17" vType="ego_car" speedFactor="0.88" vaporized=""/>
    <tripinfo id="W2E_18" depart="307.00" departLane="WE0_0" departPos="5.00" departSpeed="10.00" departDelay="0.00" arrival="404.00" arrivalLane="WE1_0" arrivalPos="892.80" arrivalSpeed="18.83" duration="97.00" routeLength="1795.00" waitingTime="0.00" waitingCount="0" stopTime="0.00" timeLoss="0.97" rerouteNo="0" devices="tripinfo_W2E_18 battery_W2E_18" vType="ego_car" speedFactor="0.94" vaporized=""/>
    <tripinfo id="E2W_19" depart="326.00" departLane="EW0_0" departPos="5.00" departSpeed="10.00" departDelay="0.00" arrival="458.00" arrivalLane="EW1_0" arrivalPos="892.80" arrivalSpeed="18.72" duration="132.00" routeLength="1795.00" waitingTime="26.00" waitingCount="1" stopTime="0.00" timeLoss="36.11" rerouteNo="0" devices="tripinfo_E2W_19 battery_E2W_19" vType="ego_car" speedFactor="0.94" vaporized=""/>
    <tripinfo id="W2E_20" depart="348.00" departLane="WE0_0" departPos="5.00" departSpeed="10.00" departDelay="0.00" arrival="726.00" arrivalLane="WE1_0" arrivalPos="892.80" arrivalSpeed="20.00" duration="378.00" routeLength="1795.00" waitingTime="260.00" waitingCount="2" stopTime="0.00" timeLoss="287.94" rerouteNo="0" devices="tripinfo_W2E_20 battery_W2E_20" vType="ego_car" speedFactor="1.16" vaporized=""/>
    <tripinfo id="W2E_21" depart="353.00" departLane="WE0_0" departPos="5.00" departSpeed="10.00" departDelay="0.00" arrival="728.00" arrivalLane="WE1_0" arrivalPos="892.80" arrivalSpeed="20.00" duration="375.00" routeLength="1795.00" waitingTime="253.00" waitingCount="2" stopTime="0.00" timeLoss="284.26" rerouteNo="0" devices="tripinfo_W2E_21 battery_W2E_21" vType="ego_car" speedFactor="1.02" vaporized=""/>
    <tripinfo id="E2W_24" depart="360.00" departLane="EW0_0" departPos="5.00" departSpeed="10.00" departDelay="0.00" arrival="736.00" arrivalLane="EW1_0" arrivalPos="892.80" arrivalSpeed="17.79" duration="376.00" routeLength="1780.60" waitingTime="301.00" waitingCount="1" stopTime="0.00" timeLoss="312.08" rerouteNo="0" devices="tripinfo_E2W_24 battery_E2W_24" vType="ego_car" speedFactor="0.89" vaporized=""/>
    <tripinfo id="E2W_28" depart="405.00" departLane="EW0_0" departPos="5.00" departSpeed="10.00" departDelay="0.00" arrival="759.00" arrivalLane="EW1_0" arrivalPos="892.80" arrivalSpeed="18.98" duration="354.00" routeLength="1780.60" waitingTime="301.00" waitingCount="1" stopTime="0.00" timeLoss="305.56" rerouteNo="0" devices="tripinfo_E2W_28 battery_E2W_28" vType="ego_car" speedFactor="0.95" vaporized=""/>
    <tripinfo id="W2E_22" depart="354.00" departLane="WE0_0" departPos="5.00" departSpeed="10.00" departDelay="1.00" arrival="822.00" arrivalLane="WE1_0" arrivalPos="892.80" arrivalSpeed="20.00" duration="468.00" routeLength="1795.00" waitingTime="339.00" waitingCount="6" stopTime="0.00" timeLoss="378.16" rerouteNo="0" devices="tripinfo_W2E_22 battery_W2E_22" vType="ego_car" speedFactor="1.01" vaporized=""/>
</tripinfos>
