<?xml version="1.0" encoding="UTF-8"?>

<!-- generated on 2023-04-13 23:18:36 by Eclipse SUMO sumo Version 1.13.0
<configuration xmlns:xsi="http://www.w3.org/2001/XMLSchema-instance" xsi:noNamespaceSchemaLocation="http://sumo.dlr.de/xsd/sumoConfiguration.xsd">

    <input>
        <net-file value="/home/yuwz/tmp/graduation_design/DDPG5/rou_net2/intersection1.net.xml"/>
        <route-files value="/home/yuwz/tmp/graduation_design/DDPG5/rou_net2/intersection80.rou.xml"/>
    </input>

    <output>
        <tripinfo-output value="/home/yuwz/tmp/graduation_design/DDPG5/rou_net2/tripinfo.xml"/>
    </output>

    <time>
        <begin value="0"/>
        <end value="3600"/>
        <step-length value="1"/>
    </time>

    <processing>
        <waiting-time-memory value="3600"/>
    </processing>

    <report>
        <no-step-log value="true"/>
    </report>

    <traci_server>
        <remote-port value="48749"/>
    </traci_server>

    <gui_only>
        <tracker-interval value="1"/>
    </gui_only>

</configuration>
-->

<tripinfos xmlns:xsi="http://www.w3.org/2001/XMLSchema-instance" xsi:noNamespaceSchemaLocation="http://sumo.dlr.de/xsd/tripinfo_file.xsd">
    <tripinfo id="W2E_1" depart="42.00" departLane="WE0_0" departPos="5.00" departSpeed="10.00" departDelay="0.00" arrival="86.00" arrivalLane="WE1_0" arrivalPos="292.80" arrivalSpeed="20.00" duration="44.00" routeLength="595.00" waitingTime="0.00" waitingCount="0" stopTime="0.00" timeLoss="14.22" rerouteNo="0" devices="tripinfo_W2E_1 battery_W2E_1" vType="ego_car" speedFactor="1.06" vaporized=""/>
    <tripinfo id="E2W_2" depart="45.00" departLane="EW0_0" departPos="5.00" departSpeed="10.00" departDelay="0.00" arrival="89.00" arrivalLane="EW1_0" arrivalPos="292.80" arrivalSpeed="18.77" duration="44.00" routeLength="595.00" waitingTime="0.00" waitingCount="0" stopTime="0.00" timeLoss="12.10" rerouteNo="0" devices="tripinfo_E2W_2 battery_E2W_2" vType="ego_car" speedFactor="0.94" vaporized=""/>
    <tripinfo id="W2E_3" depart="120.00" departLane="WE0_0" departPos="5.00" departSpeed="10.00" departDelay="0.00" arrival="157.00" arrivalLane="WE1_0" arrivalPos="292.80" arrivalSpeed="20.00" duration="37.00" routeLength="595.00" waitingTime="0.00" waitingCount="0" stopTime="0.00" timeLoss="6.82" rerouteNo="0" devices="tripinfo_W2E_3 battery_W2E_3" vType="ego_car" speedFactor="1.01" vaporized=""/>
    <tripinfo id="W2E_4" depart="141.00" departLane="WE0_0" departPos="5.00" departSpeed="10.00" departDelay="0.00" arrival="180.00" arrivalLane="WE1_0" arrivalPos="292.80" arrivalSpeed="20.00" duration="39.00" routeLength="595.00" waitingTime="0.00" waitingCount="0" stopTime="0.00" timeLoss="9.25" rerouteNo="0" devices="tripinfo_W2E_4 battery_W2E_4" vType="ego_car" speedFactor="1.08" vaporized=""/>
    <tripinfo id="E2W_5" depart="143.00" departLane="EW0_0" departPos="5.00" departSpeed="10.00" departDelay="0.00" arrival="183.00" arrivalLane="EW1_0" arrivalPos="292.80" arrivalSpeed="20.00" duration="40.00" routeLength="595.00" waitingTime="0.00" waitingCount="0" stopTime="0.00" timeLoss="9.33" rerouteNo="0" devices="tripinfo_E2W_5 battery_E2W_5" vType="ego_car" speedFactor="1.03" vaporized=""/>
    <tripinfo id="E2W_6" depart="152.00" departLane="EW0_0" departPos="5.00" departSpeed="10.00" departDelay="0.00" arrival="192.00" arrivalLane="EW1_0" arrivalPos="292.80" arrivalSpeed="16.62" duration="40.00" routeLength="595.00" waitingTime="0.00" waitingCount="0" stopTime="0.00" timeLoss="3.46" rerouteNo="0" devices="tripinfo_E2W_6 battery_E2W_6" vType="ego_car" speedFactor="0.83" vaporized=""/>
    <tripinfo id="E2W_7" depart="160.00" departLane="EW0_0" departPos="5.00" departSpeed="10.00" departDelay="0.00" arrival="244.00" arrivalLane="EW1_0" arrivalPos="292.80" arrivalSpeed="20.00" duration="84.00" routeLength="595.00" waitingTime="0.00" waitingCount="0" stopTime="0.00" timeLoss="53.38" rerouteNo="0" devices="tripinfo_E2W_7 battery_E2W_7" vType="ego_car" speedFactor="1.05" vaporized=""/>
    <tripinfo id="W2E_10" depart="173.00" departLane="WE0_0" departPos="5.00" departSpeed="10.00" departDelay="0.00" arrival="245.00" arrivalLane="WE1_0" arrivalPos="292.80" arrivalSpeed="17.14" duration="72.00" routeLength="595.00" waitingTime="0.00" waitingCount="0" stopTime="0.00" timeLoss="36.64" rerouteNo="0" devices="tripinfo_W2E_10 battery_W2E_10" vType="ego_car" speedFactor="0.86" vaporized=""/>
    <tripinfo id="W2E_11" depart="177.00" departLane="WE0_0" departPos="5.00" departSpeed="10.00" departDelay="1.00" arrival="246.00" arrivalLane="WE1_0" arrivalPos="292.80" arrivalSpeed="19.04" duration="69.00" routeLength="595.00" waitingTime="0.00" waitingCount="0" stopTime="0.00" timeLoss="39.00" rerouteNo="0" devices="tripinfo_W2E_11 battery_W2E_11" vType="ego_car" speedFactor="1.09" vaporized=""/>
    <tripinfo id="E2W_8" depart="169.00" departLane="EW0_0" departPos="5.00" departSpeed="10.00" departDelay="0.00" arrival="247.00" arrivalLane="EW1_0" arrivalPos="292.80" arrivalSpeed="17.72" duration="78.00" routeLength="595.00" waitingTime="0.00" waitingCount="0" stopTime="0.00" timeLoss="43.50" rerouteNo="0" devices="tripinfo_E2W_8 battery_E2W_8" vType="ego_car" speedFactor="0.89" vaporized=""/>
    <tripinfo id="E2W_9" depart="174.00" departLane="EW0_0" departPos="5.00" departSpeed="10.00" departDelay="2.00" arrival="248.00" arrivalLane="EW1_0" arrivalPos="292.80" arrivalSpeed="18.76" duration="74.00" routeLength="595.00" waitingTime="0.00" waitingCount="0" stopTime="0.00" timeLoss="42.18" rerouteNo="0" devices="tripinfo_E2W_9 battery_E2W_9" vType="ego_car" speedFactor="0.94" vaporized=""/>
    <tripinfo id="E2W_12" depart="179.00" departLane="EW0_0" departPos="5.00" departSpeed="10.00" departDelay="2.00" arrival="250.00" arrivalLane="EW1_0" arrivalPos="292.80" arrivalSpeed="20.00" duration="71.00" routeLength="595.00" waitingTime="0.00" waitingCount="0" stopTime="0.00" timeLoss="40.46" rerouteNo="0" devices="tripinfo_E2W_12 battery_E2W_12" vType="ego_car" speedFactor="1.03" vaporized=""/>
    <tripinfo id="E2W_13" depart="183.00" departLane="EW0_0" departPos="5.00" departSpeed="10.00" departDelay="4.00" arrival="251.00" arrivalLane="EW1_0" arrivalPos="292.80" arrivalSpeed="20.00" duration="68.00" routeLength="595.00" waitingTime="0.00" waitingCount="0" stopTime="0.00" timeLoss="38.07" rerouteNo="0" devices="tripinfo_E2W_13 battery_E2W_13" vType="ego_car" speedFactor="1.05" vaporized=""/>
    <tripinfo id="W2E_14" depart="207.00" departLane="WE0_0" departPos="5.00" departSpeed="10.00" departDelay="0.00" arrival="253.00" arrivalLane="WE1_0" arrivalPos="292.80" arrivalSpeed="20.00" duration="46.00" routeLength="595.00" waitingTime="0.00" waitingCount="0" stopTime="0.00" timeLoss="15.35" rerouteNo="0" devices="tripinfo_W2E_14 battery_W2E_14" vType="ego_car" speedFactor="1.12" vaporized=""/>
    <tripinfo id="E2W_15" depart="211.00" departLane="EW0_0" departPos="5.00" departSpeed="10.00" departDelay="0.00" arrival="256.00" arrivalLane="EW1_0" arrivalPos="292.80" arrivalSpeed="19.82" duration="45.00" routeLength="595.00" waitingTime="0.00" waitingCount="0" stopTime="0.00" timeLoss="14.55" rerouteNo="0" devices="tripinfo_E2W_15 battery_E2W_15" vType="ego_car" speedFactor="0.99" vaporized=""/>
    <tripinfo id="W2E_16" depart="233.00" departLane="WE0_0" departPos="5.00" departSpeed="10.00" departDelay="0.00" arrival="273.00" arrivalLane="WE1_0" arrivalPos="292.80" arrivalSpeed="18.54" duration="40.00" routeLength="595.00" waitingTime="0.00" waitingCount="0" stopTime="0.00" timeLoss="7.05" rerouteNo="0" devices="tripinfo_W2E_16 battery_W2E_16" vType="ego_car" speedFactor="0.93" vaporized=""/>
    <tripinfo id="E2W_17" depart="233.00" departLane="EW0_0" departPos="5.00" departSpeed="10.00" departDelay="0.00" arrival="275.00" arrivalLane="EW1_0" arrivalPos="292.80" arrivalSpeed="17.57" duration="42.00" routeLength="595.00" waitingTime="0.00" waitingCount="0" stopTime="0.00" timeLoss="7.50" rerouteNo="0" devices="tripinfo_E2W_17 battery_E2W_17" vType="ego_car" speedFactor="0.88" vaporized=""/>
    <tripinfo id="E2W_20" depart="264.00" departLane="EW0_0" departPos="5.00" departSpeed="10.00" departDelay="0.00" arrival="333.00" arrivalLane="EW1_0" arrivalPos="292.80" arrivalSpeed="20.00" duration="69.00" routeLength="595.00" waitingTime="0.00" waitingCount="0" stopTime="0.00" timeLoss="38.90" rerouteNo="0" devices="tripinfo_E2W_20 battery_E2W_20" vType="ego_car" speedFactor="1.16" vaporized=""/>
    <tripinfo id="W2E_18" depart="250.00" departLane="WE0_0" departPos="5.00" departSpeed="10.00" departDelay="0.00" arrival="334.00" arrivalLane="WE1_0" arrivalPos="292.80" arrivalSpeed="18.83" duration="84.00" routeLength="595.00" waitingTime="0.00" waitingCount="0" stopTime="0.00" timeLoss="52.18" rerouteNo="0" devices="tripinfo_W2E_18 battery_W2E_18" vType="ego_car" speedFactor="0.94" vaporized=""/>
    <tripinfo id="E2W_23" depart="283.00" departLane="EW0_0" departPos="5.00" departSpeed="10.00" departDelay="0.00" arrival="335.00" arrivalLane="EW1_0" arrivalPos="292.80" arrivalSpeed="19.50" duration="52.00" routeLength="595.00" waitingTime="0.00" waitingCount="0" stopTime="0.00" timeLoss="20.81" rerouteNo="0" devices="tripinfo_E2W_23 battery_E2W_23" vType="ego_car" speedFactor="0.97" vaporized=""/>
    <tripinfo id="W2E_19" depart="256.00" departLane="WE0_0" departPos="5.00" departSpeed="10.00" departDelay="1.00" arrival="336.00" arrivalLane="WE1_0" arrivalPos="292.80" arrivalSpeed="18.72" duration="80.00" routeLength="595.00" waitingTime="0.00" waitingCount="0" stopTime="0.00" timeLoss="47.81" rerouteNo="0" devices="tripinfo_W2E_19 battery_W2E_19" vType="ego_car" speedFactor="0.94" vaporized=""/>
    <tripinfo id="W2E_21" depart="269.00" departLane="WE0_0" departPos="5.00" departSpeed="10.00" departDelay="0.00" arrival="338.00" arrivalLane="WE1_0" arrivalPos="292.80" arrivalSpeed="20.00" duration="69.00" routeLength="595.00" waitingTime="0.00" waitingCount="0" stopTime="0.00" timeLoss="38.26" rerouteNo="0" devices="tripinfo_W2E_21 battery_W2E_21" vType="ego_car" speedFactor="1.02" vaporized=""/>
    <tripinfo id="W2E_22" depart="275.00" departLane="WE0_0" departPos="5.00" departSpeed="10.00" departDelay="0.00" arrival="341.00" arrivalLane="WE1_0" arrivalPos="292.80" arrivalSpeed="20.00" duration="66.00" routeLength="595.00" waitingTime="0.00" waitingCount="0" stopTime="0.00" timeLoss="35.29" rerouteNo="0" devices="tripinfo_W2E_22 battery_W2E_22" vType="ego_car" speedFactor="1.01" vaporized=""/>
    <tripinfo id="W2E_24" depart="284.00" departLane="WE0_0" departPos="5.00" departSpeed="10.00" departDelay="0.00" arrival="345.00" arrivalLane="WE1_0" arrivalPos="292.80" arrivalSpeed="17.79" duration="61.00" routeLength="595.00" waitingTime="0.00" waitingCount="0" stopTime="0.00" timeLoss="26.66" rerouteNo="0" devices="tripinfo_W2E_24 battery_W2E_24" vType="ego_car" speedFactor="0.89" vaporized=""/>
    <tripinfo id="W2E_25" depart="309.00" departLane="WE0_0" departPos="5.00" departSpeed="10.00" departDelay="0.00" arrival="359.00" arrivalLane="WE1_0" arrivalPos="292.80" arrivalSpeed="16.51" duration="50.00" routeLength="595.00" waitingTime="0.00" waitingCount="0" stopTime="0.00" timeLoss="13.53" rerouteNo="0" devices="tripinfo_W2E_25 battery_W2E_25" vType="ego_car" speedFactor="0.83" vaporized=""/>
    <tripinfo id="E2W_26" depart="327.00" departLane="EW0_0" departPos="5.00" departSpeed="10.00" departDelay="0.00" arrival="366.00" arrivalLane="EW1_0" arrivalPos="292.80" arrivalSpeed="17.45" duration="39.00" routeLength="595.00" waitingTime="0.00" waitingCount="0" stopTime="0.00" timeLoss="4.17" rerouteNo="0" devices="tripinfo_E2W_26 battery_E2W_26" vType="ego_car" speedFactor="0.87" vaporized=""/>
    <tripinfo id="E2W_27" depart="333.00" departLane="EW0_0" departPos="5.00" departSpeed="10.00" departDelay="0.00" arrival="370.00" arrivalLane="EW1_0" arrivalPos="292.80" arrivalSpeed="18.34" duration="37.00" routeLength="595.00" waitingTime="0.00" waitingCount="0" stopTime="0.00" timeLoss="3.86" rerouteNo="0" devices="tripinfo_E2W_27 battery_E2W_27" vType="ego_car" speedFactor="0.92" vaporized=""/>
    <tripinfo id="E2W_28" depart="342.00" departLane="EW0_0" departPos="5.00" departSpeed="10.00" departDelay="0.00" arrival="424.00" arrivalLane="EW1_0" arrivalPos="292.80" arrivalSpeed="18.98" duration="82.00" routeLength="595.00" waitingTime="0.00" waitingCount="0" stopTime="0.00" timeLoss="50.23" rerouteNo="0" devices="tripinfo_E2W_28 battery_E2W_28" vType="ego_car" speedFactor="0.95" vaporized=""/>
    <tripinfo id="W2E_29" depart="350.00" departLane="WE0_0" departPos="5.00" departSpeed="10.00" departDelay="0.00" arrival="424.00" arrivalLane="WE1_0" arrivalPos="292.80" arrivalSpeed="20.00" duration="74.00" routeLength="595.00" waitingTime="0.00" waitingCount="0" stopTime="0.00" timeLoss="43.36" rerouteNo="0" devices="tripinfo_W2E_29 battery_W2E_29" vType="ego_car" speedFactor="1.13" vaporized=""/>
    <tripinfo id="W2E_30" depart="357.00" departLane="WE0_0" departPos="5.00" departSpeed="10.00" departDelay="0.00" arrival="426.00" arrivalLane="WE1_0" arrivalPos="292.80" arrivalSpeed="18.63" duration="69.00" routeLength="595.00" waitingTime="0.00" waitingCount="0" stopTime="0.00" timeLoss="36.67" rerouteNo="0" devices="tripinfo_W2E_30 battery_W2E_30" vType="ego_car" speedFactor="0.93" vaporized=""/>
    <tripinfo id="W2E_31" depart="365.00" departLane="WE0_0" departPos="5.00" departSpeed="10.00" departDelay="0.00" arrival="428.00" arrivalLane="WE1_0" arrivalPos="292.80" arrivalSpeed="20.00" duration="63.00" routeLength="595.00" waitingTime="0.00" waitingCount="0" stopTime="0.00" timeLoss="32.45" rerouteNo="0" devices="tripinfo_W2E_31 battery_W2E_31" vType="ego_car" speedFactor="1.18" vaporized=""/>
    <tripinfo id="W2E_32" depart="370.00" departLane="WE0_0" departPos="5.00" departSpeed="10.00" departDelay="5.00" arrival="429.00" arrivalLane="WE1_0" arrivalPos="292.80" arrivalSpeed="20.00" duration="59.00" routeLength="595.00" waitingTime="0.00" waitingCount="0" stopTime="0.00" timeLoss="28.94" rerouteNo="0" devices="tripinfo_W2E_32 battery_W2E_32" vType="ego_car" speedFactor="1.15" vaporized=""/>
    <tripinfo id="W2E_33" depart="374.00" departLane="WE0_0" departPos="5.00" departSpeed="10.00" departDelay="1.00" arrival="431.00" arrivalLane="WE1_0" arrivalPos="292.80" arrivalSpeed="20.00" duration="57.00" routeLength="595.00" waitingTime="0.00" waitingCount="0" stopTime="0.00" timeLoss="26.26" rerouteNo="0" devices="tripinfo_W2E_33 battery_W2E_33" vType="ego_car" speedFactor="1.01" vaporized=""/>
    <tripinfo id="E2W_34" depart="386.00" departLane="EW0_0" departPos="5.00" departSpeed="10.00" departDelay="0.00" arrival="438.00" arrivalLane="EW1_0" arrivalPos="292.80" arrivalSpeed="20.00" duration="52.00" routeLength="595.00" waitingTime="0.00" waitingCount="0" stopTime="0.00" timeLoss="22.21" rerouteNo="0" devices="tripinfo_E2W_34 battery_E2W_34" vType="ego_car" speedFactor="1.17" vaporized=""/>
    <tripinfo id="E2W_35" depart="391.00" departLane="EW0_0" departPos="5.00" departSpeed="10.00" departDelay="0.00" arrival="440.00" arrivalLane="EW1_0" arrivalPos="292.80" arrivalSpeed="19.90" duration="49.00" routeLength="595.00" waitingTime="0.00" waitingCount="0" stopTime="0.00" timeLoss="18.67" rerouteNo="0" devices="tripinfo_E2W_35 battery_E2W_35" vType="ego_car" speedFactor="0.99" vaporized=""/>
    <tripinfo id="W2E_38" depart="404.00" departLane="WE0_0" departPos="5.00" departSpeed="10.00" departDelay="0.00" arrival="445.00" arrivalLane="WE1_0" arrivalPos="292.80" arrivalSpeed="20.00" duration="41.00" routeLength="595.00" waitingTime="0.00" waitingCount="0" stopTime="0.00" timeLoss="11.24" rerouteNo="0" devices="tripinfo_W2E_38 battery_W2E_38" vType="ego_car" speedFactor="1.18" vaporized=""/>
    <tripinfo id="E2W_36" depart="398.00" departLane="EW0_0" departPos="5.00" departSpeed="10.00" departDelay="0.00" arrival="449.00" arrivalLane="EW1_0" arrivalPos="292.80" arrivalSpeed="20.00" duration="51.00" routeLength="595.00" waitingTime="0.00" waitingCount="0" stopTime="0.00" timeLoss="20.66" rerouteNo="0" devices="tripinfo_E2W_36 battery_E2W_36" vType="ego_car" speedFactor="1.02" vaporized=""/>
    <tripinfo id="E2W_37" depart="400.00" departLane="EW0_0" departPos="5.00" departSpeed="10.00" departDelay="1.00" arrival="450.00" arrivalLane="EW1_0" arrivalPos="292.80" arrivalSpeed="19.46" duration="50.00" routeLength="595.00" waitingTime="0.00" waitingCount="0" stopTime="0.00" timeLoss="19.40" rerouteNo="0" devices="tripinfo_E2W_37 battery_E2W_37" vType="ego_car" speedFactor="0.97" vaporized=""/>
    <tripinfo id="E2W_39" depart="404.00" departLane="EW0_0" departPos="5.00" departSpeed="10.00" departDelay="0.00" arrival="452.00" arrivalLane="EW1_0" arrivalPos="292.80" arrivalSpeed="20.00" duration="48.00" routeLength="595.00" waitingTime="0.00" waitingCount="0" stopTime="0.00" timeLoss="17.76" rerouteNo="0" devices="tripinfo_E2W_39 battery_E2W_39" vType="ego_car" speedFactor="1.10" vaporized=""/>
    <tripinfo id="W2E_41" depart="426.00" departLane="WE0_0" departPos="5.00" departSpeed="10.00" departDelay="0.00" arrival="460.00" arrivalLane="WE1_0" arrivalPos="292.80" arrivalSpeed="20.00" duration="34.00" routeLength="595.00" waitingTime="0.00" waitingCount="0" stopTime="0.00" timeLoss="3.89" rerouteNo="0" devices="tripinfo_W2E_41 battery_W2E_41" vType="ego_car" speedFactor="1.03" vaporized=""/>
    <tripinfo id="E2W_40" depart="423.00" departLane="EW0_0" departPos="5.00" departSpeed="10.00" departDelay="0.00" arrival="461.00" arrivalLane="EW1_0" arrivalPos="292.80" arrivalSpeed="18.01" duration="38.00" routeLength="595.00" waitingTime="0.00" waitingCount="0" stopTime="0.00" timeLoss="4.23" rerouteNo="0" devices="tripinfo_E2W_40 battery_E2W_40" vType="ego_car" speedFactor="0.90" vaporized=""/>
    <tripinfo id="W2E_44" depart="447.00" departLane="WE0_0" departPos="5.00" departSpeed="10.00" departDelay="0.00" arrival="513.00" arrivalLane="WE1_0" arrivalPos="292.80" arrivalSpeed="20.00" duration="66.00" routeLength="595.00" waitingTime="0.00" waitingCount="0" stopTime="0.00" timeLoss="36.10" rerouteNo="0" devices="tripinfo_W2E_44 battery_W2E_44" vType="ego_car" speedFactor="1.04" vaporized=""/>
    <tripinfo id="E2W_42" depart="432.00" departLane="EW0_0" departPos="5.00" departSpeed="10.00" departDelay="0.00" arrival="514.00" arrivalLane="EW1_0" arrivalPos="292.80" arrivalSpeed="19.14" duration="82.00" routeLength="595.00" waitingTime="0.00" waitingCount="0" stopTime="0.00" timeLoss="50.38" rerouteNo="0" devices="tripinfo_E2W_42 battery_E2W_42" vType="ego_car" speedFactor="0.96" vaporized=""/>
    <tripinfo id="W2E_47" depart="458.00" departLane="WE0_0" departPos="5.00" departSpeed="10.00" departDelay="0.00" arrival="515.00" arrivalLane="WE1_0" arrivalPos="292.80" arrivalSpeed="19.95" duration="57.00" routeLength="595.00" waitingTime="0.00" waitingCount="0" stopTime="0.00" timeLoss="27.10" rerouteNo="0" devices="tripinfo_W2E_47 battery_W2E_47" vType="ego_car" speedFactor="1.00" vaporized=""/>
    <tripinfo id="E2W_43" depart="445.00" departLane="EW0_0" departPos="5.00" departSpeed="10.00" departDelay="0.00" arrival="516.00" arrivalLane="EW1_0" arrivalPos="292.80" arrivalSpeed="20.00" duration="71.00" routeLength="595.00" waitingTime="0.00" waitingCount="0" stopTime="0.00" timeLoss="40.26" rerouteNo="0" devices="tripinfo_E2W_43 battery_E2W_43" vType="ego_car" speedFactor="1.09" vaporized=""/>
    <tripinfo id="E2W_45" depart="449.00" departLane="EW0_0" departPos="5.00" departSpeed="10.00" departDelay="0.00" arrival="517.00" arrivalLane="EW1_0" arrivalPos="292.80" arrivalSpeed="20.00" duration="68.00" routeLength="595.00" waitingTime="0.00" waitingCount="0" stopTime="0.00" timeLoss="37.78" rerouteNo="0" devices="tripinfo_E2W_45 battery_E2W_45" vType="ego_car" speedFactor="1.04" vaporized=""/>
    <tripinfo id="W2E_48" depart="461.00" departLane="WE0_0" departPos="5.00" departSpeed="10.00" departDelay="2.00" arrival="518.00" arrivalLane="WE1_0" arrivalPos="292.80" arrivalSpeed="18.01" duration="57.00" routeLength="595.00" waitingTime="0.00" waitingCount="0" stopTime="0.00" timeLoss="23.44" rerouteNo="0" devices="tripinfo_W2E_48 battery_W2E_48" vType="ego_car" speedFactor="0.90" vaporized=""/>
    <tripinfo id="E2W_46" depart="453.00" departLane="EW0_0" departPos="5.00" departSpeed="10.00" departDelay="1.00" arrival="519.00" arrivalLane="EW1_0" arrivalPos="292.80" arrivalSpeed="20.00" duration="66.00" routeLength="595.00" waitingTime="0.00" waitingCount="0" stopTime="0.00" timeLoss="36.10" rerouteNo="0" devices="tripinfo_E2W_46 battery_E2W_46" vType="ego_car" speedFactor="1.09" vaporized=""/>
    <tripinfo id="E2W_49" depart="462.00" departLane="EW0_0" departPos="5.00" departSpeed="10.00" departDelay="0.00" arrival="523.00" arrivalLane="EW1_0" arrivalPos="292.80" arrivalSpeed="17.54" duration="61.00" routeLength="595.00" waitingTime="0.00" waitingCount="0" stopTime="0.00" timeLoss="26.26" rerouteNo="0" devices="tripinfo_E2W_49 battery_E2W_49" vType="ego_car" speedFactor="0.88" vaporized=""/>
    <tripinfo id="E2W_50" depart="465.00" departLane="EW0_0" departPos="5.00" departSpeed="10.00" departDelay="3.00" arrival="525.00" arrivalLane="EW1_0" arrivalPos="292.80" arrivalSpeed="17.01" duration="60.00" routeLength="595.00" waitingTime="0.00" waitingCount="0" stopTime="0.00" timeLoss="24.54" rerouteNo="0" devices="tripinfo_E2W_50 battery_E2W_50" vType="ego_car" speedFactor="0.85" vaporized=""/>
    <tripinfo id="E2W_51" depart="476.00" departLane="EW0_0" departPos="5.00" departSpeed="10.00" departDelay="0.00" arrival="527.00" arrivalLane="EW1_0" arrivalPos="292.80" arrivalSpeed="17.10" duration="51.00" routeLength="595.00" waitingTime="0.00" waitingCount="0" stopTime="0.00" timeLoss="15.95" rerouteNo="0" devices="tripinfo_E2W_51 battery_E2W_51" vType="ego_car" speedFactor="0.85" vaporized=""/>
    <tripinfo id="W2E_53" depart="493.00" departLane="WE0_0" departPos="5.00" departSpeed="10.00" departDelay="0.00" arrival="532.00" arrivalLane="WE1_0" arrivalPos="292.80" arrivalSpeed="20.00" duration="39.00" routeLength="595.00" waitingTime="0.00" waitingCount="0" stopTime="0.00" timeLoss="8.90" rerouteNo="0" devices="tripinfo_W2E_53 battery_W2E_53" vType="ego_car" speedFactor="1.02" vaporized=""/>
    <tripinfo id="W2E_54" depart="494.00" departLane="WE0_0" departPos="5.00" departSpeed="10.00" departDelay="0.00" arrival="536.00" arrivalLane="WE1_0" arrivalPos="292.80" arrivalSpeed="20.00" duration="42.00" routeLength="595.00" waitingTime="0.00" waitingCount="0" stopTime="0.00" timeLoss="11.59" rerouteNo="0" devices="tripinfo_W2E_54 battery_W2E_54" vType="ego_car" speedFactor="1.10" vaporized=""/>
    <tripinfo id="E2W_52" depart="488.00" departLane="EW0_0" departPos="5.00" departSpeed="10.00" departDelay="0.00" arrival="537.00" arrivalLane="EW1_0" arrivalPos="292.80" arrivalSpeed="20.00" duration="49.00" routeLength="595.00" waitingTime="0.00" waitingCount="0" stopTime="0.00" timeLoss="19.01" rerouteNo="0" devices="tripinfo_E2W_52 battery_E2W_52" vType="ego_car" speedFactor="1.17" vaporized=""/>
    <tripinfo id="E2W_55" depart="497.00" departLane="EW0_0" departPos="5.00" departSpeed="10.00" departDelay="0.00" arrival="542.00" arrivalLane="EW1_0" arrivalPos="292.80" arrivalSpeed="20.00" duration="45.00" routeLength="595.00" waitingTime="0.00" waitingCount="0" stopTime="0.00" timeLoss="15.10" rerouteNo="0" devices="tripinfo_E2W_55 battery_E2W_55" vType="ego_car" speedFactor="1.00" vaporized=""/>
    <tripinfo id="E2W_56" depart="498.00" departLane="EW0_0" departPos="5.00" departSpeed="10.00" departDelay="0.00" arrival="544.00" arrivalLane="EW1_0" arrivalPos="292.80" arrivalSpeed="19.92" duration="46.00" routeLength="595.00" waitingTime="0.00" waitingCount="0" stopTime="0.00" timeLoss="15.31" rerouteNo="0" devices="tripinfo_E2W_56 battery_E2W_56" vType="ego_car" speedFactor="1.00" vaporized=""/>
    <tripinfo id="W2E_57" depart="509.00" departLane="WE0_0" departPos="5.00" departSpeed="10.00" departDelay="0.00" arrival="547.00" arrivalLane="WE1_0" arrivalPos="292.80" arrivalSpeed="17.98" duration="38.00" routeLength="595.00" waitingTime="0.00" waitingCount="0" stopTime="0.00" timeLoss="4.79" rerouteNo="0" devices="tripinfo_W2E_57 battery_W2E_57" vType="ego_car" speedFactor="0.90" vaporized=""/>
    <tripinfo id="E2W_62" depart="535.00" departLane="EW0_0" departPos="5.00" departSpeed="10.00" departDelay="0.00" arrival="603.00" arrivalLane="EW1_0" arrivalPos="292.80" arrivalSpeed="20.00" duration="68.00" routeLength="595.00" waitingTime="0.00" waitingCount="0" stopTime="0.00" timeLoss="37.92" rerouteNo="0" devices="tripinfo_E2W_62 battery_E2W_62" vType="ego_car" speedFactor="1.12" vaporized=""/>
    <tripinfo id="W2E_58" depart="518.00" departLane="WE0_0" departPos="5.00" departSpeed="10.00" departDelay="0.00" arrival="604.00" arrivalLane="WE1_0" arrivalPos="292.80" arrivalSpeed="20.00" duration="86.00" routeLength="595.00" waitingTime="0.00" waitingCount="0" stopTime="0.00" timeLoss="55.87" rerouteNo="0" devices="tripinfo_W2E_58 battery_W2E_58" vType="ego_car" speedFactor="1.14" vaporized=""/>
    <tripinfo id="W2E_59" depart="521.00" departLane="WE0_0" departPos="5.00" departSpeed="10.00" departDelay="0.00" arrival="606.00" arrivalLane="WE1_0" arrivalPos="292.80" arrivalSpeed="20.00" duration="85.00" routeLength="595.00" waitingTime="0.00" waitingCount="0" stopTime="0.00" timeLoss="54.54" rerouteNo="0" devices="tripinfo_W2E_59 battery_W2E_59" vType="ego_car" speedFactor="1.02" vaporized=""/>
    <tripinfo id="E2W_64" depart="540.00" departLane="EW0_0" departPos="5.00" departSpeed="10.00" departDelay="4.00" arrival="606.00" arrivalLane="EW1_0" arrivalPos="292.80" arrivalSpeed="19.74" duration="66.00" routeLength="595.00" waitingTime="0.00" waitingCount="0" stopTime="0.00" timeLoss="35.45" rerouteNo="0" devices="tripinfo_E2W_64 battery_E2W_64" vType="ego_car" speedFactor="0.99" vaporized=""/>
    <tripinfo id="W2E_60" depart="525.00" departLane="WE0_0" departPos="5.00" departSpeed="10.00" departDelay="3.00" arrival="608.00" arrivalLane="WE1_0" arrivalPos="292.80" arrivalSpeed="19.39" duration="83.00" routeLength="595.00" waitingTime="0.00" waitingCount="0" stopTime="0.00" timeLoss="51.93" rerouteNo="0" devices="tripinfo_W2E_60 battery_W2E_60" vType="ego_car" speedFactor="0.97" vaporized=""/>
    <tripinfo id="E2W_68" depart="544.00" departLane="EW0_0" departPos="5.00" departSpeed="10.00" departDelay="5.00" arrival="609.00" arrivalLane="EW1_0" arrivalPos="292.80" arrivalSpeed="18.29" duration="65.00" routeLength="595.00" waitingTime="0.00" waitingCount="0" stopTime="0.00" timeLoss="31.61" rerouteNo="0" devices="tripinfo_E2W_68 battery_E2W_68" vType="ego_car" speedFactor="0.91" vaporized=""/>
    <tripinfo id="W2E_61" depart="530.00" departLane="WE0_0" departPos="5.00" departSpeed="10.00" departDelay="0.00" arrival="610.00" arrivalLane="WE1_0" arrivalPos="292.80" arrivalSpeed="20.00" duration="80.00" routeLength="595.00" waitingTime="0.00" waitingCount="0" stopTime="0.00" timeLoss="49.30" rerouteNo="0" devices="tripinfo_W2E_61 battery_W2E_61" vType="ego_car" speedFactor="1.08" vaporized=""/>
    <tripinfo id="E2W_70" depart="548.00" departLane="EW0_0" departPos="5.00" departSpeed="10.00" departDelay="8.00" arrival="610.00" arrivalLane="EW1_0" arrivalPos="292.80" arrivalSpeed="20.00" duration="62.00" routeLength="595.00" waitingTime="0.00" waitingCount="0" stopTime="0.00" timeLoss="32.09" rerouteNo="0" devices="tripinfo_E2W_70 battery_E2W_70" vType="ego_car" speedFactor="1.02" vaporized=""/>
    <tripinfo id="W2E_63" depart="536.00" departLane="WE0_0" departPos="5.00" departSpeed="10.00" departDelay="0.00" arrival="611.00" arrivalLane="WE1_0" arrivalPos="292.80" arrivalSpeed="20.00" duration="75.00" routeLength="595.00" waitingTime="0.00" waitingCount="0" stopTime="0.00" timeLoss="44.72" rerouteNo="0" devices="tripinfo_W2E_63 battery_W2E_63" vType="ego_car" speedFactor="1.02" vaporized=""/>
    <tripinfo id="W2E_65" depart="541.00" departLane="WE0_0" departPos="5.00" departSpeed="10.00" departDelay="4.00" arrival="614.00" arrivalLane="WE1_0" arrivalPos="292.80" arrivalSpeed="18.75" duration="73.00" routeLength="595.00" waitingTime="0.00" waitingCount="0" stopTime="0.00" timeLoss="41.25" rerouteNo="0" devices="tripinfo_W2E_65 battery_W2E_65" vType="ego_car" speedFactor="0.94" vaporized=""/>
    <tripinfo id="W2E_66" depart="545.00" departLane="WE0_0" departPos="5.00" departSpeed="10.00" departDelay="8.00" arrival="616.00" arrivalLane="WE1_0" arrivalPos="292.80" arrivalSpeed="17.65" duration="71.00" routeLength="595.00" waitingTime="0.00" waitingCount="0" stopTime="0.00" timeLoss="37.28" rerouteNo="0" devices="tripinfo_W2E_66 battery_W2E_66" vType="ego_car" speedFactor="0.88" vaporized=""/>
    <tripinfo id="W2E_67" depart="548.00" departLane="WE0_0" departPos="5.00" departSpeed="10.00" departDelay="10.00" arrival="618.00" arrivalLane="WE1_0" arrivalPos="292.80" arrivalSpeed="18.14" duration="70.00" routeLength="595.00" waitingTime="0.00" waitingCount="0" stopTime="0.00" timeLoss="36.91" rerouteNo="0" devices="tripinfo_W2E_67 battery_W2E_67" vType="ego_car" speedFactor="0.91" vaporized=""/>
    <tripinfo id="W2E_69" depart="551.00" departLane="WE0_0" departPos="5.00" departSpeed="10.00" departDelay="11.00" arrival="620.00" arrivalLane="WE1_0" arrivalPos="292.80" arrivalSpeed="20.00" duration="69.00" routeLength="595.00" waitingTime="0.00" waitingCount="0" stopTime="0.00" timeLoss="38.88" rerouteNo="0" devices="tripinfo_W2E_69 battery_W2E_69" vType="ego_car" speedFactor="1.04" vaporized=""/>