<?xml version="1.0" encoding="UTF-8"?>

<!-- generated on 2023-04-13 22:06:56 by Eclipse SUMO sumo Version 1.13.0
<configuration xmlns:xsi="http://www.w3.org/2001/XMLSchema-instance" xsi:noNamespaceSchemaLocation="http://sumo.dlr.de/xsd/sumoConfiguration.xsd">

    <input>
        <net-file value="/home/yuwz/tmp/graduation_design/DDPG5/rou_net2/intersection1.net.xml"/>
        <route-files value="/home/yuwz/tmp/graduation_design/DDPG5/rou_net2/intersection2.rou.xml"/>
    </input>

    <output>
        <tripinfo-output value="/home/yuwz/tmp/graduation_design/DDPG5/rou_net2/tripinfo.xml"/>
    </output>

    <time>
        <begin value="0"/>
        <end value="3600"/>
        <step-length value="1"/>
    </time>

    <processing>
        <waiting-time-memory value="3600"/>
    </processing>

    <report>
        <no-step-log value="true"/>
    </report>

    <traci_server>
        <remote-port value="44911"/>
    </traci_server>

    <gui_only>
        <tracker-interval value="1"/>
    </gui_only>

</configuration>
-->

<tripinfos xmlns:xsi="http://www.w3.org/2001/XMLSchema-instance" xsi:noNamespaceSchemaLocation="http://sumo.dlr.de/xsd/tripinfo_file.xsd">
    <tripinfo id="E2W_1" depart="26.00" departLane="EW0_0" departPos="5.00" departSpeed="10.00" departDelay="0.00" arrival="63.00" arrivalLane="EW1_0" arrivalPos="292.80" arrivalSpeed="20.00" duration="37.00" routeLength="595.00" waitingTime="0.00" waitingCount="0" stopTime="0.00" timeLoss="6.47" rerouteNo="0" devices="tripinfo_E2W_1 battery_E2W_1" vType="ego_car" speedFactor="1.06" vaporized=""/>
    <tripinfo id="E2W_2" depart="83.00" departLane="EW0_0" departPos="5.00" departSpeed="10.00" departDelay="0.00" arrival="153.00" arrivalLane="EW1_0" arrivalPos="292.80" arrivalSpeed="18.77" duration="70.00" routeLength="595.00" waitingTime="0.00" waitingCount="0" stopTime="0.00" timeLoss="37.79" rerouteNo="0" devices="tripinfo_E2W_2 battery_E2W_2" vType="ego_car" speedFactor="0.94" vaporized=""/>
    <tripinfo id="E2W_3" depart="150.00" departLane="EW0_0" departPos="5.00" departSpeed="10.00" departDelay="0.00" arrival="182.00" arrivalLane="EW1_0" arrivalPos="292.80" arrivalSpeed="20.00" duration="32.00" routeLength="595.00" waitingTime="0.00" waitingCount="0" stopTime="0.00" timeLoss="1.57" rerouteNo="0" devices="tripinfo_E2W_3 battery_E2W_3" vType="ego_car" speedFactor="1.01" vaporized=""/>
    <tripinfo id="E2W_4" depart="180.00" departLane="EW0_0" departPos="5.00" departSpeed="10.00" departDelay="0.00" arrival="242.00" arrivalLane="EW1_0" arrivalPos="292.80" arrivalSpeed="20.00" duration="62.00" routeLength="595.00" waitingTime="0.00" waitingCount="0" stopTime="0.00" timeLoss="31.76" rerouteNo="0" devices="tripinfo_E2W_4 battery_E2W_4" vType="ego_car" speedFactor="1.08" vaporized=""/>
    <tripinfo id="E2W_5" depart="185.00" departLane="EW0_0" departPos="5.00" departSpeed="10.00" departDelay="4.00" arrival="243.00" arrivalLane="EW1_0" arrivalPos="292.80" arrivalSpeed="20.00" duration="58.00" routeLength="595.00" waitingTime="0.00" waitingCount="0" stopTime="0.00" timeLoss="28.06" rerouteNo="0" devices="tripinfo_E2W_5 battery_E2W_5" vType="ego_car" speedFactor="1.03" vaporized=""/>
    <tripinfo id="W2E_6" depart="191.00" departLane="WE0_0" departPos="5.00" departSpeed="10.00" departDelay="0.00" arrival="245.00" arrivalLane="WE1_0" arrivalPos="292.80" arrivalSpeed="16.62" duration="54.00" routeLength="595.00" waitingTime="0.00" waitingCount="0" stopTime="0.00" timeLoss="17.73" rerouteNo="0" devices="tripinfo_W2E_6 battery_W2E_6" vType="ego_car" speedFactor="0.83" vaporized=""/>
    <tripinfo id="E2W_7" depart="202.00" departLane="EW0_0" departPos="5.00" departSpeed="10.00" departDelay="0.00" arrival="245.00" arrivalLane="EW1_0" arrivalPos="292.80" arrivalSpeed="20.00" duration="43.00" routeLength="595.00" waitingTime="0.00" waitingCount="0" stopTime="0.00" timeLoss="12.36" rerouteNo="0" devices="tripinfo_E2W_7 battery_E2W_7" vType="ego_car" speedFactor="1.05" vaporized=""/>
    <tripinfo id="E2W_8" depart="210.00" departLane="EW0_0" departPos="5.00" departSpeed="10.00" departDelay="0.00" arrival="248.00" arrivalLane="EW1_0" arrivalPos="292.80" arrivalSpeed="17.72" duration="38.00" routeLength="595.00" waitingTime="0.00" waitingCount="0" stopTime="0.00" timeLoss="3.67" rerouteNo="0" devices="tripinfo_E2W_8 battery_E2W_8" vType="ego_car" speedFactor="0.89" vaporized=""/>
    <tripinfo id="E2W_9" depart="229.00" departLane="EW0_0" departPos="5.00" departSpeed="10.00" departDelay="0.00" arrival="262.00" arrivalLane="EW1_0" arrivalPos="292.80" arrivalSpeed="18.76" duration="33.00" routeLength="595.00" waitingTime="0.00" waitingCount="0" stopTime="0.00" timeLoss="0.82" rerouteNo="0" devices="tripinfo_E2W_9 battery_E2W_9" vType="ego_car" speedFactor="0.94" vaporized=""/>
    <tripinfo id="E2W_10" depart="232.00" departLane="EW0_0" departPos="5.00" departSpeed="10.00" departDelay="0.00" arrival="268.00" arrivalLane="EW1_0" arrivalPos="292.80" arrivalSpeed="17.14" duration="36.00" routeLength="595.00" waitingTime="0.00" waitingCount="0" stopTime="0.00" timeLoss="0.55" rerouteNo="0" devices="tripinfo_E2W_10 battery_E2W_10" vType="ego_car" speedFactor="0.86" vaporized=""/>
    <tripinfo id="W2E_11" depart="248.00" departLane="WE0_0" departPos="5.00" departSpeed="10.00" departDelay="0.00" arrival="279.00" arrivalLane="WE1_0" arrivalPos="292.80" arrivalSpeed="20.00" duration="31.00" routeLength="595.00" waitingTime="0.00" waitingCount="0" stopTime="0.00" timeLoss="1.00" rerouteNo="0" devices="tripinfo_W2E_11 battery_W2E_11" vType="ego_car" speedFactor="1.09" vaporized=""/>
    <tripinfo id="W2E_12" depart="249.00" departLane="WE0_0" departPos="5.00" departSpeed="10.00" departDelay="0.00" arrival="332.00" arrivalLane="WE1_0" arrivalPos="292.80" arrivalSpeed="20.00" duration="83.00" routeLength="595.00" waitingTime="0.00" waitingCount="0" stopTime="0.00" timeLoss="52.88" rerouteNo="0" devices="tripinfo_W2E_12 battery_W2E_12" vType="ego_car" speedFactor="1.03" vaporized=""/>
    <tripinfo id="E2W_13" depart="253.00" departLane="EW0_0" departPos="5.00" departSpeed="10.00" departDelay="0.00" arrival="332.00" arrivalLane="EW1_0" arrivalPos="292.80" arrivalSpeed="20.00" duration="79.00" routeLength="595.00" waitingTime="11.00" waitingCount="1" stopTime="0.00" timeLoss="49.07" rerouteNo="0" devices="tripinfo_E2W_13 battery_E2W_13" vType="ego_car" speedFactor="1.05" vaporized=""/>
    <tripinfo id="E2W_14" depart="269.00" departLane="EW0_0" departPos="5.00" departSpeed="10.00" departDelay="0.00" arrival="334.00" arrivalLane="EW1_0" arrivalPos="292.80" arrivalSpeed="20.00" duration="65.00" routeLength="595.00" waitingTime="0.00" waitingCount="0" stopTime="0.00" timeLoss="34.39" rerouteNo="0" devices="tripinfo_E2W_14 battery_E2W_14" vType="ego_car" speedFactor="1.12" vaporized=""/>
    <tripinfo id="W2E_16" depart="278.00" departLane="WE0_0" departPos="5.00" departSpeed="10.00" departDelay="0.00" arrival="334.00" arrivalLane="WE1_0" arrivalPos="292.80" arrivalSpeed="18.54" duration="56.00" routeLength="595.00" waitingTime="0.00" waitingCount="0" stopTime="0.00" timeLoss="23.78" rerouteNo="0" devices="tripinfo_W2E_16 battery_W2E_16" vType="ego_car" speedFactor="0.93" vaporized=""/>
    <tripinfo id="E2W_15" depart="275.00" departLane="EW0_0" departPos="5.00" departSpeed="10.00" departDelay="5.00" arrival="335.00" arrivalLane="EW1_0" arrivalPos="292.80" arrivalSpeed="19.82" duration="60.00" routeLength="595.00" waitingTime="0.00" waitingCount="0" stopTime="0.00" timeLoss="29.54" rerouteNo="0" devices="tripinfo_E2W_15 battery_E2W_15" vType="ego_car" speedFactor="0.99" vaporized=""/>
    <tripinfo id="E2W_17" depart="280.00" departLane="EW0_0" departPos="5.00" departSpeed="10.00" departDelay="1.00" arrival="338.00" arrivalLane="EW1_0" arrivalPos="292.80" arrivalSpeed="17.57" duration="58.00" routeLength="595.00" waitingTime="0.00" waitingCount="0" stopTime="0.00" timeLoss="23.61" rerouteNo="0" devices="tripinfo_E2W_17 battery_E2W_17" vType="ego_car" speedFactor="0.88" vaporized=""/>
    <tripinfo id="E2W_18" depart="283.00" departLane="EW0_0" departPos="5.00" departSpeed="10.00" departDelay="2.00" arrival="339.00" arrivalLane="EW1_0" arrivalPos="292.80" arrivalSpeed="18.83" duration="56.00" routeLength="595.00" waitingTime="0.00" waitingCount="0" stopTime="0.00" timeLoss="24.16" rerouteNo="0" devices="tripinfo_E2W_18 battery_E2W_18" vType="ego_car" speedFactor="0.94" vaporized=""/>
    <tripinfo id="E2W_19" depart="287.00" departLane="EW0_0" departPos="5.00" departSpeed="10.00" departDelay="6.00" arrival="341.00" arrivalLane="EW1_0" arrivalPos="292.80" arrivalSpeed="18.72" duration="54.00" routeLength="595.00" waitingTime="0.00" waitingCount="0" stopTime="0.00" timeLoss="21.30" rerouteNo="0" devices="tripinfo_E2W_19 battery_E2W_19" vType="ego_car" speedFactor="0.94" vaporized=""/>
    <tripinfo id="E2W_20" depart="295.00" departLane="EW0_0" departPos="5.00" departSpeed="10.00" departDelay="0.00" arrival="342.00" arrivalLane="EW1_0" arrivalPos="292.80" arrivalSpeed="20.00" duration="47.00" routeLength="595.00" waitingTime="0.00" waitingCount="0" stopTime="0.00" timeLoss="16.62" rerouteNo="0" devices="tripinfo_E2W_20 battery_E2W_20" vType="ego_car" speedFactor="1.16" vaporized=""/>
    <tripinfo id="E2W_21" depart="297.00" departLane="EW0_0" departPos="5.00" departSpeed="10.00" departDelay="0.00" arrival="343.00" arrivalLane="EW1_0" arrivalPos="292.80" arrivalSpeed="20.00" duration="46.00" routeLength="595.00" waitingTime="0.00" waitingCount="0" stopTime="0.00" timeLoss="15.91" rerouteNo="0" devices="tripinfo_E2W_21 battery_E2W_21" vType="ego_car" speedFactor="1.02" vaporized=""/>
    <tripinfo id="E2W_22" depart="309.00" departLane="EW0_0" departPos="5.00" departSpeed="10.00" departDelay="0.00" arrival="344.00" arrivalLane="EW1_0" arrivalPos="292.80" arrivalSpeed="20.00" duration="35.00" routeLength="595.00" waitingTime="0.00" waitingCount="0" stopTime="0.00" timeLoss="5.22" rerouteNo="0" devices="tripinfo_E2W_22 battery_E2W_22" vType="ego_car" speedFactor="1.01" vaporized=""/>
    <tripinfo id="E2W_23" depart="311.00" departLane="EW0_0" departPos="5.00" departSpeed="10.00" departDelay="0.00" arrival="346.00" arrivalLane="EW1_0" arrivalPos="292.80" arrivalSpeed="19.50" duration="35.00" routeLength="595.00" waitingTime="0.00" waitingCount="0" stopTime="0.00" timeLoss="3.79" rerouteNo="0" devices="tripinfo_E2W_23 battery_E2W_23" vType="ego_car" speedFactor="0.97" vaporized=""/>
    <tripinfo id="W2E_24" depart="319.00" departLane="WE0_0" departPos="5.00" departSpeed="10.00" departDelay="0.00" arrival="356.00" arrivalLane="WE1_0" arrivalPos="292.80" arrivalSpeed="17.79" duration="37.00" routeLength="595.00" waitingTime="0.00" waitingCount="0" stopTime="0.00" timeLoss="2.63" rerouteNo="0" devices="tripinfo_W2E_24 battery_W2E_24" vType="ego_car" speedFactor="0.89" vaporized=""/>
    <tripinfo id="E2W_25" depart="324.00" departLane="EW0_0" departPos="5.00" departSpeed="10.00" departDelay="0.00" arrival="361.00" arrivalLane="EW1_0" arrivalPos="292.80" arrivalSpeed="16.51" duration="37.00" routeLength="595.00" waitingTime="0.00" waitingCount="0" stopTime="0.00" timeLoss="0.78" rerouteNo="0" devices="tripinfo_E2W_25 battery_E2W_25" vType="ego_car" speedFactor="0.83" vaporized=""/>
    <tripinfo id="E2W_26" depart="337.00" departLane="EW0_0" departPos="5.00" departSpeed="10.00" departDelay="0.00" arrival="423.00" arrivalLane="EW1_0" arrivalPos="292.80" arrivalSpeed="17.45" duration="86.00" routeLength="595.00" waitingTime="7.00" waitingCount="2" stopTime="0.00" timeLoss="51.91" rerouteNo="0" devices="tripinfo_E2W_26 battery_E2W_26" vType="ego_car" speedFactor="0.87" vaporized=""/>
    <tripinfo id="W2E_27" depart="338.00" departLane="WE0_0" departPos="5.00" departSpeed="10.00" departDelay="0.00" arrival="424.00" arrivalLane="WE1_0" arrivalPos="292.80" arrivalSpeed="18.34" duration="86.00" routeLength="595.00" waitingTime="2.00" waitingCount="2" stopTime="0.00" timeLoss="53.22" rerouteNo="0" devices="tripinfo_W2E_27 battery_W2E_27" vType="ego_car" speedFactor="0.92" vaporized=""/>
    <tripinfo id="W2E_28" depart="353.00" departLane="WE0_0" departPos="5.00" departSpeed="10.00" departDelay="0.00" arrival="425.00" arrivalLane="WE1_0" arrivalPos="292.80" arrivalSpeed="18.98" duration="72.00" routeLength="595.00" waitingTime="0.00" waitingCount="0" stopTime="0.00" timeLoss="40.59" rerouteNo="0" devices="tripinfo_W2E_28 battery_W2E_28" vType="ego_car" speedFactor="0.95" vaporized=""/>
    <tripinfo id="E2W_29" depart="356.00" departLane="EW0_0" departPos="5.00" departSpeed="10.00" departDelay="0.00" arrival="425.00" arrivalLane="EW1_0" arrivalPos="292.80" arrivalSpeed="20.00" duration="69.00" routeLength="595.00" waitingTime="0.00" waitingCount="0" stopTime="0.00" timeLoss="38.48" rerouteNo="0" devices="tripinfo_E2W_29 battery_E2W_29" vType="ego_car" speedFactor="1.13" vaporized=""/>
    <tripinfo id="E2W_30" depart="362.00" departLane="EW0_0" departPos="5.00" departSpeed="10.00" departDelay="0.00" arrival="426.00" arrivalLane="EW1_0" arrivalPos="292.80" arrivalSpeed="18.63" duration="64.00" routeLength="595.00" waitingTime="0.00" waitingCount="0" stopTime="0.00" timeLoss="31.64" rerouteNo="0" devices="tripinfo_E2W_30 battery_E2W_30" vType="ego_car" speedFactor="0.93" vaporized=""/>
    <tripinfo id="E2W_31" depart="382.00" departLane="EW0_0" departPos="5.00" departSpeed="10.00" departDelay="0.00" arrival="427.00" arrivalLane="EW1_0" arrivalPos="292.80" arrivalSpeed="20.00" duration="45.00" routeLength="595.00" waitingTime="0.00" waitingCount="0" stopTime="0.00" timeLoss="15.09" rerouteNo="0" devices="tripinfo_E2W_31 battery_E2W_31" vType="ego_car" speedFactor="1.18" vaporized=""/>
    <tripinfo id="W2E_33" depart="389.00" departLane="WE0_0" departPos="5.00" departSpeed="10.00" departDelay="0.00" arrival="427.00" arrivalLane="WE1_0" arrivalPos="292.80" arrivalSpeed="20.00" duration="38.00" routeLength="595.00" waitingTime="0.00" waitingCount="0" stopTime="0.00" timeLoss="7.46" rerouteNo="0" devices="tripinfo_W2E_33 battery_W2E_33" vType="ego_car" speedFactor="1.01" vaporized=""/>
    <tripinfo id="E2W_32" depart="385.00" departLane="EW0_0" departPos="5.00" departSpeed="10.00" departDelay="0.00" arrival="429.00" arrivalLane="EW1_0" arrivalPos="292.80" arrivalSpeed="20.00" duration="44.00" routeLength="595.00" waitingTime="0.00" waitingCount="0" stopTime="0.00" timeLoss="13.39" rerouteNo="0" devices="tripinfo_E2W_32 battery_E2W_32" vType="ego_car" speedFactor="1.15" vaporized=""/>
    <tripinfo id="E2W_34" depart="398.00" departLane="EW0_0" departPos="5.00" departSpeed="10.00" departDelay="0.00" arrival="430.00" arrivalLane="EW1_0" arrivalPos="292.80" arrivalSpeed="20.00" duration="32.00" routeLength="595.00" waitingTime="0.00" waitingCount="0" stopTime="0.00" timeLoss="1.83" rerouteNo="0" devices="tripinfo_E2W_34 battery_E2W_34" vType="ego_car" speedFactor="1.17" vaporized=""/>
    <tripinfo id="E2W_35" depart="400.00" departLane="EW0_0" departPos="5.00" departSpeed="10.00" departDelay="2.00" arrival="432.00" arrivalLane="EW1_0" arrivalPos="292.80" arrivalSpeed="19.90" duration="32.00" routeLength="595.00" waitingTime="0.00" waitingCount="0" stopTime="0.00" timeLoss="1.21" rerouteNo="0" devices="tripinfo_E2W_35 battery_E2W_35" vType="ego_car" speedFactor="0.99" vaporized=""/>
    <tripinfo id="W2E_36" depart="403.00" departLane="WE0_0" departPos="5.00" departSpeed="10.00" departDelay="0.00" arrival="435.00" arrivalLane="WE1_0" arrivalPos="292.80" arrivalSpeed="20.00" duration="32.00" routeLength="595.00" waitingTime="0.00" waitingCount="0" stopTime="0.00" timeLoss="1.37" rerouteNo="0" devices="tripinfo_W2E_36 battery_W2E_36" vType="ego_car" speedFactor="1.02" vaporized=""/>
    <tripinfo id="W2E_37" depart="404.00" departLane="WE0_0" departPos="5.00" departSpeed="10.00" departDelay="1.00" arrival="436.00" arrivalLane="WE1_0" arrivalPos="292.80" arrivalSpeed="19.46" duration="32.00" routeLength="595.00" waitingTime="0.00" waitingCount="0" stopTime="0.00" timeLoss="1.38" rerouteNo="0" devices="tripinfo_W2E_37 battery_W2E_37" vType="ego_car" speedFactor="0.97" vaporized=""/>
    <tripinfo id="W2E_38" depart="406.00" departLane="WE0_0" departPos="5.00" departSpeed="10.00" departDelay="3.00" arrival="438.00" arrivalLane="WE1_0" arrivalPos="292.80" arrivalSpeed="20.00" duration="32.00" routeLength="595.00" waitingTime="0.00" waitingCount="0" stopTime="0.00" timeLoss="1.48" rerouteNo="0" devices="tripinfo_W2E_38 battery_W2E_38" vType="ego_car" speedFactor="1.18" vaporized=""/>
    <tripinfo id="W2E_39" depart="410.00" departLane="WE0_0" departPos="5.00" departSpeed="10.00" departDelay="0.00" arrival="441.00" arrivalLane="WE1_0" arrivalPos="292.80" arrivalSpeed="20.00" duration="31.00" routeLength="595.00" waitingTime="0.00" waitingCount="0" stopTime="0.00" timeLoss="1.01" rerouteNo="0" devices="tripinfo_W2E_39 battery_W2E_39" vType="ego_car" speedFactor="1.10" vaporized=""/>
    <tripinfo id="E2W_40" depart="417.00" departLane="EW0_0" departPos="5.00" departSpeed="10.00" departDelay="0.00" arrival="452.00" arrivalLane="EW1_0" arrivalPos="292.80" arrivalSpeed="18.01" duration="35.00" routeLength="595.00" waitingTime="0.00" waitingCount="0" stopTime="0.00" timeLoss="1.06" rerouteNo="0" devices="tripinfo_E2W_40 battery_E2W_40" vType="ego_car" speedFactor="0.90" vaporized=""/>
