<?xml version="1.0" encoding="UTF-8"?>

<!-- generated on 2023-04-12 20:22:13 by Eclipse SUMO sumo Version 1.13.0
<configuration xmlns:xsi="http://www.w3.org/2001/XMLSchema-instance" xsi:noNamespaceSchemaLocation="http://sumo.dlr.de/xsd/sumoConfiguration.xsd">

    <input>
        <net-file value="/home/pc10/sumo_workplace/DDPG5/rou_net2/intersection1.net.xml"/>
        <route-files value="/home/pc10/sumo_workplace/DDPG5/rou_net2/intersection6.rou.xml"/>
    </input>

    <output>
        <tripinfo-output value="/home/pc10/sumo_workplace/DDPG5/rou_net2/tripinfo.xml"/>
    </output>

    <time>
        <begin value="0"/>
        <end value="3600"/>
        <step-length value="1"/>
    </time>

    <processing>
        <waiting-time-memory value="3600"/>
    </processing>

    <report>
        <no-step-log value="true"/>
    </report>

    <traci_server>
        <remote-port value="41693"/>
    </traci_server>

    <gui_only>
        <tracker-interval value="1"/>
    </gui_only>

</configuration>
-->

<tripinfos xmlns:xsi="http://www.w3.org/2001/XMLSchema-instance" xsi:noNamespaceSchemaLocation="http://sumo.dlr.de/xsd/tripinfo_file.xsd">
    <tripinfo id="W2E_1" depart="83.00" departLane="WE0_0" departPos="5.00" departSpeed="10.00" departDelay="0.00" arrival="152.00" arrivalLane="WE1_0" arrivalPos="292.80" arrivalSpeed="20.00" duration="69.00" routeLength="595.00" waitingTime="0.00" waitingCount="0" stopTime="0.00" timeLoss="38.86" rerouteNo="0" devices="tripinfo_W2E_1 battery_W2E_1" vType="ego_car" speedFactor="1.06" vaporized=""/>
    <tripinfo id="W2E_2" depart="104.00" departLane="WE0_0" departPos="5.00" departSpeed="10.00" departDelay="0.00" arrival="157.00" arrivalLane="WE1_0" arrivalPos="292.80" arrivalSpeed="18.77" duration="53.00" routeLength="595.00" waitingTime="0.00" waitingCount="0" stopTime="0.00" timeLoss="21.12" rerouteNo="0" devices="tripinfo_W2E_2 battery_W2E_2" vType="ego_car" speedFactor="0.94" vaporized=""/>
    <tripinfo id="W2E_3" depart="130.00" departLane="WE0_0" departPos="5.00" departSpeed="10.00" departDelay="0.00" arrival="170.00" arrivalLane="WE1_0" arrivalPos="292.80" arrivalSpeed="20.00" duration="40.00" routeLength="595.00" waitingTime="0.00" waitingCount="0" stopTime="0.00" timeLoss="10.05" rerouteNo="0" devices="tripinfo_W2E_3 battery_W2E_3" vType="ego_car" speedFactor="1.01" vaporized=""/>
    <tripinfo id="W2E_4" depart="222.00" departLane="WE0_0" departPos="5.00" departSpeed="10.00" departDelay="0.00" arrival="262.00" arrivalLane="WE1_0" arrivalPos="292.80" arrivalSpeed="20.00" duration="40.00" routeLength="595.00" waitingTime="0.00" waitingCount="0" stopTime="0.00" timeLoss="10.00" rerouteNo="0" devices="tripinfo_W2E_4 battery_W2E_4" vType="ego_car" speedFactor="1.08" vaporized=""/>
    <tripinfo id="W2E_5" depart="271.00" departLane="WE0_0" departPos="5.00" departSpeed="10.00" departDelay="0.00" arrival="333.00" arrivalLane="WE1_0" arrivalPos="292.80" arrivalSpeed="20.00" duration="62.00" routeLength="595.00" waitingTime="0.00" waitingCount="0" stopTime="0.00" timeLoss="31.59" rerouteNo="0" devices="tripinfo_W2E_5 battery_W2E_5" vType="ego_car" speedFactor="1.03" vaporized=""/>
    <tripinfo id="W2E_6" depart="292.00" departLane="WE0_0" departPos="5.00" departSpeed="10.00" departDelay="0.00" arrival="341.00" arrivalLane="WE1_0" arrivalPos="292.80" arrivalSpeed="16.62" duration="49.00" routeLength="595.00" waitingTime="0.00" waitingCount="0" stopTime="0.00" timeLoss="12.39" rerouteNo="0" devices="tripinfo_W2E_6 battery_W2E_6" vType="ego_car" speedFactor="0.83" vaporized=""/>
    <tripinfo id="W2E_7" depart="322.00" departLane="WE0_0" departPos="5.00" departSpeed="10.00" departDelay="0.00" arrival="355.00" arrivalLane="WE1_0" arrivalPos="292.80" arrivalSpeed="20.00" duration="33.00" routeLength="595.00" waitingTime="0.00" waitingCount="0" stopTime="0.00" timeLoss="3.18" rerouteNo="0" devices="tripinfo_W2E_7 battery_W2E_7" vType="ego_car" speedFactor="1.05" vaporized=""/>
    <tripinfo id="E2W_8" depart="340.00" departLane="EW0_0" departPos="5.00" departSpeed="10.00" departDelay="0.00" arrival="424.00" arrivalLane="EW1_0" arrivalPos="292.80" arrivalSpeed="17.72" duration="84.00" routeLength="595.00" waitingTime="0.00" waitingCount="0" stopTime="0.00" timeLoss="50.30" rerouteNo="0" devices="tripinfo_E2W_8 battery_E2W_8" vType="ego_car" speedFactor="0.89" vaporized=""/>
    <tripinfo id="W2E_9" depart="345.00" departLane="WE0_0" departPos="5.00" departSpeed="10.00" departDelay="0.00" arrival="424.00" arrivalLane="WE1_0" arrivalPos="292.80" arrivalSpeed="18.76" duration="79.00" routeLength="595.00" waitingTime="0.00" waitingCount="0" stopTime="0.00" timeLoss="46.89" rerouteNo="0" devices="tripinfo_W2E_9 battery_W2E_9" vType="ego_car" speedFactor="0.94" vaporized=""/>
    <tripinfo id="W2E_10" depart="355.00" departLane="WE0_0" departPos="5.00" departSpeed="10.00" departDelay="0.00" arrival="428.00" arrivalLane="WE1_0" arrivalPos="292.80" arrivalSpeed="17.14" duration="73.00" routeLength="595.00" waitingTime="0.00" waitingCount="0" stopTime="0.00" timeLoss="37.90" rerouteNo="0" devices="tripinfo_W2E_10 battery_W2E_10" vType="ego_car" speedFactor="0.86" vaporized=""/>
    <tripinfo id="W2E_11" depart="365.00" departLane="WE0_0" departPos="5.00" departSpeed="10.00" departDelay="0.00" arrival="430.00" arrivalLane="WE1_0" arrivalPos="292.80" arrivalSpeed="20.00" duration="65.00" routeLength="595.00" waitingTime="0.00" waitingCount="0" stopTime="0.00" timeLoss="34.45" rerouteNo="0" devices="tripinfo_W2E_11 battery_W2E_11" vType="ego_car" speedFactor="1.09" vaporized=""/>
    <tripinfo id="W2E_13" depart="370.00" departLane="WE0_0" departPos="5.00" departSpeed="10.00" departDelay="1.00" arrival="431.00" arrivalLane="WE1_0" arrivalPos="292.80" arrivalSpeed="20.00" duration="61.00" routeLength="595.00" waitingTime="0.00" waitingCount="0" stopTime="0.00" timeLoss="30.74" rerouteNo="0" devices="tripinfo_W2E_13 battery_W2E_13" vType="ego_car" speedFactor="1.05" vaporized=""/>
    <tripinfo id="E2W_12" depart="366.00" departLane="EW0_0" departPos="5.00" departSpeed="10.00" departDelay="0.00" arrival="433.00" arrivalLane="EW1_0" arrivalPos="292.80" arrivalSpeed="20.00" duration="67.00" routeLength="595.00" waitingTime="3.00" waitingCount="1" stopTime="0.00" timeLoss="37.00" rerouteNo="0" devices="tripinfo_E2W_12 battery_E2W_12" vType="ego_car" speedFactor="1.03" vaporized=""/>
    <tripinfo id="W2E_14" depart="377.00" departLane="WE0_0" departPos="5.00" departSpeed="10.00" departDelay="0.00" arrival="434.00" arrivalLane="WE1_0" arrivalPos="292.80" arrivalSpeed="20.00" duration="57.00" routeLength="595.00" waitingTime="0.00" waitingCount="0" stopTime="0.00" timeLoss="26.75" rerouteNo="0" devices="tripinfo_W2E_14 battery_W2E_14" vType="ego_car" speedFactor="1.12" vaporized=""/>
    <tripinfo id="W2E_16" depart="388.00" departLane="WE0_0" departPos="5.00" departSpeed="10.00" departDelay="0.00" arrival="437.00" arrivalLane="WE1_0" arrivalPos="292.80" arrivalSpeed="18.54" duration="49.00" routeLength="595.00" waitingTime="0.00" waitingCount="0" stopTime="0.00" timeLoss="16.90" rerouteNo="0" devices="tripinfo_W2E_16 battery_W2E_16" vType="ego_car" speedFactor="0.93" vaporized=""/>
    <tripinfo id="E2W_15" depart="383.00" departLane="EW0_0" departPos="5.00" departSpeed="10.00" departDelay="0.00" arrival="443.00" arrivalLane="EW1_0" arrivalPos="292.80" arrivalSpeed="19.82" duration="60.00" routeLength="595.00" waitingTime="8.00" waitingCount="2" stopTime="0.00" timeLoss="29.39" rerouteNo="0" devices="tripinfo_E2W_15 battery_E2W_15" vType="ego_car" speedFactor="0.99" vaporized=""/>
    <tripinfo id="W2E_17" depart="408.00" departLane="WE0_0" departPos="5.00" departSpeed="10.00" departDelay="0.00" arrival="451.00" arrivalLane="WE1_0" arrivalPos="292.80" arrivalSpeed="17.57" duration="43.00" routeLength="595.00" waitingTime="0.00" waitingCount="0" stopTime="0.00" timeLoss="8.82" rerouteNo="0" devices="tripinfo_W2E_17 battery_W2E_17" vType="ego_car" speedFactor="0.88" vaporized=""/>
    <tripinfo id="E2W_18" depart="413.00" departLane="EW0_0" departPos="5.00" departSpeed="10.00" departDelay="0.00" arrival="455.00" arrivalLane="EW1_0" arrivalPos="292.80" arrivalSpeed="18.83" duration="42.00" routeLength="595.00" waitingTime="0.00" waitingCount="0" stopTime="0.00" timeLoss="9.81" rerouteNo="0" devices="tripinfo_E2W_18 battery_E2W_18" vType="ego_car" speedFactor="0.94" vaporized=""/>
    <tripinfo id="W2E_19" depart="433.00" departLane="WE0_0" departPos="5.00" departSpeed="10.00" departDelay="0.00" arrival="513.00" arrivalLane="WE1_0" arrivalPos="292.80" arrivalSpeed="18.72" duration="80.00" routeLength="595.00" waitingTime="0.00" waitingCount="0" stopTime="0.00" timeLoss="48.17" rerouteNo="0" devices="tripinfo_W2E_19 battery_W2E_19" vType="ego_car" speedFactor="0.94" vaporized=""/>
    <tripinfo id="E2W_23" depart="447.00" departLane="EW0_0" departPos="5.00" departSpeed="10.00" departDelay="0.00" arrival="514.00" arrivalLane="EW1_0" arrivalPos="292.80" arrivalSpeed="19.50" duration="67.00" routeLength="595.00" waitingTime="0.00" waitingCount="0" stopTime="0.00" timeLoss="36.08" rerouteNo="0" devices="tripinfo_E2W_23 battery_E2W_23" vType="ego_car" speedFactor="0.97" vaporized=""/>
    <tripinfo id="W2E_20" depart="439.00" departLane="WE0_0" departPos="5.00" departSpeed="10.00" departDelay="5.00" arrival="523.00" arrivalLane="WE1_0" arrivalPos="292.80" arrivalSpeed="20.00" duration="84.00" routeLength="595.00" waitingTime="1.00" waitingCount="1" stopTime="0.00" timeLoss="53.67" rerouteNo="0" devices="tripinfo_W2E_20 battery_W2E_20" vType="ego_car" speedFactor="1.16" vaporized=""/>
    <tripinfo id="W2E_21" depart="445.00" departLane="WE0_0" departPos="5.00" departSpeed="10.00" departDelay="11.00" arrival="524.00" arrivalLane="WE1_0" arrivalPos="292.80" arrivalSpeed="20.00" duration="79.00" routeLength="595.00" waitingTime="1.00" waitingCount="1" stopTime="0.00" timeLoss="48.96" rerouteNo="0" devices="tripinfo_W2E_21 battery_W2E_21" vType="ego_car" speedFactor="1.02" vaporized=""/>
    <tripinfo id="W2E_22" depart="450.00" departLane="WE0_0" departPos="5.00" departSpeed="10.00" departDelay="5.00" arrival="527.00" arrivalLane="WE1_0" arrivalPos="292.80" arrivalSpeed="20.00" duration="77.00" routeLength="595.00" waitingTime="1.00" waitingCount="1" stopTime="0.00" timeLoss="46.57" rerouteNo="0" devices="tripinfo_W2E_22 battery_W2E_22" vType="ego_car" speedFactor="1.01" vaporized=""/>
    <tripinfo id="E2W_31" depart="493.00" departLane="EW0_0" departPos="5.00" departSpeed="10.00" departDelay="0.00" arrival="528.00" arrivalLane="EW1_0" arrivalPos="292.80" arrivalSpeed="20.00" duration="35.00" routeLength="595.00" waitingTime="0.00" waitingCount="0" stopTime="0.00" timeLoss="4.91" rerouteNo="0" devices="tripinfo_E2W_31 battery_E2W_31" vType="ego_car" speedFactor="1.18" vaporized=""/>
    <tripinfo id="W2E_24" depart="454.00" departLane="WE0_0" departPos="5.00" departSpeed="10.00" departDelay="2.00" arrival="529.00" arrivalLane="WE1_0" arrivalPos="292.80" arrivalSpeed="17.79" duration="75.00" routeLength="595.00" waitingTime="1.00" waitingCount="1" stopTime="0.00" timeLoss="41.42" rerouteNo="0" devices="tripinfo_W2E_24 battery_W2E_24" vType="ego_car" speedFactor="0.89" vaporized=""/>
    <tripinfo id="W2E_25" depart="459.00" departLane="WE0_0" departPos="5.00" departSpeed="10.00" departDelay="0.00" arrival="535.00" arrivalLane="WE1_0" arrivalPos="292.80" arrivalSpeed="16.51" duration="76.00" routeLength="595.00" waitingTime="1.00" waitingCount="1" stopTime="0.00" timeLoss="39.33" rerouteNo="0" devices="tripinfo_W2E_25 battery_W2E_25" vType="ego_car" speedFactor="0.83" vaporized=""/>
    <tripinfo id="W2E_26" depart="463.00" departLane="WE0_0" departPos="5.00" departSpeed="10.00" departDelay="4.00" arrival="536.00" arrivalLane="WE1_0" arrivalPos="292.80" arrivalSpeed="17.45" duration="73.00" routeLength="595.00" waitingTime="1.00" waitingCount="1" stopTime="0.00" timeLoss="38.64" rerouteNo="0" devices="tripinfo_W2E_26 battery_W2E_26" vType="ego_car" speedFactor="0.87" vaporized=""/>
    <tripinfo id="W2E_27" depart="473.00" departLane="WE0_0" departPos="5.00" departSpeed="10.00" departDelay="0.00" arrival="538.00" arrivalLane="WE1_0" arrivalPos="292.80" arrivalSpeed="18.34" duration="65.00" routeLength="595.00" waitingTime="1.00" waitingCount="1" stopTime="0.00" timeLoss="31.92" rerouteNo="0" devices="tripinfo_W2E_27 battery_W2E_27" vType="ego_car" speedFactor="0.92" vaporized=""/>
    <tripinfo id="W2E_28" depart="480.00" departLane="WE0_0" departPos="5.00" departSpeed="10.00" departDelay="0.00" arrival="541.00" arrivalLane="WE1_0" arrivalPos="292.80" arrivalSpeed="18.98" duration="61.00" routeLength="595.00" waitingTime="1.00" waitingCount="1" stopTime="0.00" timeLoss="28.74" rerouteNo="0" devices="tripinfo_W2E_28 battery_W2E_28" vType="ego_car" speedFactor="0.95" vaporized=""/>
    <tripinfo id="W2E_29" depart="483.00" departLane="WE0_0" departPos="5.00" departSpeed="10.00" departDelay="0.00" arrival="542.00" arrivalLane="WE1_0" arrivalPos="292.80" arrivalSpeed="20.00" duration="59.00" routeLength="595.00" waitingTime="1.00" waitingCount="1" stopTime="0.00" timeLoss="28.63" rerouteNo="0" devices="tripinfo_W2E_29 battery_W2E_29" vType="ego_car" speedFactor="1.13" vaporized=""/>
    <tripinfo id="W2E_30" depart="485.00" departLane="WE0_0" departPos="5.00" departSpeed="10.00" departDelay="0.00" arrival="546.00" arrivalLane="WE1_0" arrivalPos="292.80" arrivalSpeed="18.63" duration="61.00" routeLength="595.00" waitingTime="1.00" waitingCount="1" stopTime="0.00" timeLoss="28.98" rerouteNo="0" devices="tripinfo_W2E_30 battery_W2E_30" vType="ego_car" speedFactor="0.93" vaporized=""/>
    <tripinfo id="W2E_32" depart="504.00" departLane="WE0_0" departPos="5.00" departSpeed="10.00" departDelay="0.00" arrival="548.00" arrivalLane="WE1_0" arrivalPos="292.80" arrivalSpeed="20.00" duration="44.00" routeLength="595.00" waitingTime="0.00" waitingCount="0" stopTime="0.00" timeLoss="13.40" rerouteNo="0" devices="tripinfo_W2E_32 battery_W2E_32" vType="ego_car" speedFactor="1.15" vaporized=""/>
    <tripinfo id="W2E_33" depart="513.00" departLane="WE0_0" departPos="5.00" departSpeed="10.00" departDelay="0.00" arrival="549.00" arrivalLane="WE1_0" arrivalPos="292.80" arrivalSpeed="20.00" duration="36.00" routeLength="595.00" waitingTime="0.00" waitingCount="0" stopTime="0.00" timeLoss="5.73" rerouteNo="0" devices="tripinfo_W2E_33 battery_W2E_33" vType="ego_car" speedFactor="1.01" vaporized=""/>
    <tripinfo id="E2W_34" depart="516.00" departLane="EW0_0" departPos="5.00" departSpeed="10.00" departDelay="0.00" arrival="549.00" arrivalLane="EW1_0" arrivalPos="292.80" arrivalSpeed="20.00" duration="33.00" routeLength="595.00" waitingTime="0.00" waitingCount="0" stopTime="0.00" timeLoss="3.11" rerouteNo="0" devices="tripinfo_E2W_34 battery_E2W_34" vType="ego_car" speedFactor="1.17" vaporized=""/>
    <tripinfo id="E2W_35" depart="521.00" departLane="EW0_0" departPos="5.00" departSpeed="10.00" departDelay="0.00" arrival="602.00" arrivalLane="EW1_0" arrivalPos="292.80" arrivalSpeed="19.90" duration="81.00" routeLength="595.00" waitingTime="0.00" waitingCount="0" stopTime="0.00" timeLoss="50.96" rerouteNo="0" devices="tripinfo_E2W_35 battery_E2W_35" vType="ego_car" speedFactor="0.99" vaporized=""/>
    <tripinfo id="W2E_36" depart="522.00" departLane="WE0_0" departPos="5.00" departSpeed="10.00" departDelay="0.00" arrival="602.00" arrivalLane="WE1_0" arrivalPos="292.80" arrivalSpeed="20.00" duration="80.00" routeLength="595.00" waitingTime="0.00" waitingCount="0" stopTime="0.00" timeLoss="50.06" rerouteNo="0" devices="tripinfo_W2E_36 battery_W2E_36" vType="ego_car" speedFactor="1.02" vaporized=""/>
</tripinfos>
