<?xml version="1.0" encoding="UTF-8"?>

<!-- generated on 2023-04-19 19:26:13 by Eclipse SUMO sumo Version 1.13.0
<configuration xmlns:xsi="http://www.w3.org/2001/XMLSchema-instance" xsi:noNamespaceSchemaLocation="http://sumo.dlr.de/xsd/sumoConfiguration.xsd">

    <input>
        <net-file value="/home/yuwz/graduation_design/DDPG5/rou_net2_single/intersection1.net.xml"/>
        <route-files value="/home/yuwz/graduation_design/DDPG5/rou_net2_single/intersection2.rou.xml"/>
    </input>

    <output>
        <tripinfo-output value="/home/yuwz/graduation_design/DDPG5/rou_net2_single/tripinfo.xml"/>
    </output>

    <time>
        <begin value="0"/>
        <end value="3600"/>
        <step-length value="1"/>
    </time>

    <processing>
        <waiting-time-memory value="3600"/>
    </processing>

    <report>
        <no-step-log value="true"/>
    </report>

    <traci_server>
        <remote-port value="49145"/>
    </traci_server>

    <gui_only>
        <tracker-interval value="1"/>
    </gui_only>

</configuration>
-->

<tripinfos xmlns:xsi="http://www.w3.org/2001/XMLSchema-instance" xsi:noNamespaceSchemaLocation="http://sumo.dlr.de/xsd/tripinfo_file.xsd">
    <tripinfo id="W2E_1" depart="81.00" departLane="WE0_0" departPos="5.00" departSpeed="10.00" departDelay="0.00" arrival="189.00" arrivalLane="WE1_0" arrivalPos="892.80" arrivalSpeed="20.00" duration="108.00" routeLength="1795.00" waitingTime="0.00" waitingCount="0" stopTime="0.00" timeLoss="17.70" rerouteNo="0" devices="tripinfo_W2E_1 battery_W2E_1" vType="ego_car" speedFactor="1.06" vaporized=""/>
    <tripinfo id="E2W_2" depart="97.00" departLane="EW0_0" departPos="5.00" departSpeed="10.00" departDelay="0.00" arrival="203.00" arrivalLane="EW1_0" arrivalPos="892.80" arrivalSpeed="18.77" duration="106.00" routeLength="1795.00" waitingTime="0.00" waitingCount="0" stopTime="0.00" timeLoss="9.54" rerouteNo="0" devices="tripinfo_E2W_2 battery_E2W_2" vType="ego_car" speedFactor="0.94" vaporized=""/>
    <tripinfo id="E2W_3" depart="144.00" departLane="EW0_0" departPos="5.00" departSpeed="10.00" departDelay="0.00" arrival="277.00" arrivalLane="EW1_0" arrivalPos="892.80" arrivalSpeed="20.00" duration="133.00" routeLength="1795.00" waitingTime="0.00" waitingCount="0" stopTime="0.00" timeLoss="43.22" rerouteNo="0" devices="tripinfo_E2W_3 battery_E2W_3" vType="ego_car" speedFactor="1.01" vaporized=""/>
    <tripinfo id="E2W_4" depart="158.00" departLane="EW0_0" departPos="5.00" departSpeed="10.00" departDelay="0.00" arrival="279.00" arrivalLane="EW1_0" arrivalPos="892.80" arrivalSpeed="20.00" duration="121.00" routeLength="1795.00" waitingTime="0.00" waitingCount="0" stopTime="0.00" timeLoss="30.55" rerouteNo="0" devices="tripinfo_E2W_4 battery_E2W_4" vType="ego_car" speedFactor="1.08" vaporized=""/>
    <tripinfo id="W2E_5" depart="193.00" departLane="WE0_0" departPos="5.00" departSpeed="10.00" departDelay="0.00" arrival="292.00" arrivalLane="WE1_0" arrivalPos="892.80" arrivalSpeed="20.00" duration="99.00" routeLength="1795.00" waitingTime="0.00" waitingCount="0" stopTime="0.00" timeLoss="8.40" rerouteNo="0" devices="tripinfo_W2E_5 battery_W2E_5" vType="ego_car" speedFactor="1.03" vaporized=""/>
    <tripinfo id="W2E_7" depart="208.00" departLane="WE0_0" departPos="5.00" departSpeed="10.00" departDelay="0.00" arrival="301.00" arrivalLane="WE1_0" arrivalPos="892.80" arrivalSpeed="20.00" duration="93.00" routeLength="1795.00" waitingTime="0.00" waitingCount="0" stopTime="0.00" timeLoss="2.73" rerouteNo="0" devices="tripinfo_W2E_7 battery_W2E_7" vType="ego_car" speedFactor="1.05" vaporized=""/>
    <tripinfo id="E2W_6" depart="194.00" departLane="EW0_0" departPos="5.00" departSpeed="10.00" departDelay="0.00" arrival="304.00" arrivalLane="EW1_0" arrivalPos="892.80" arrivalSpeed="16.62" duration="110.00" routeLength="1795.00" waitingTime="0.00" waitingCount="0" stopTime="0.00" timeLoss="1.51" rerouteNo="0" devices="tripinfo_E2W_6 battery_E2W_6" vType="ego_car" speedFactor="0.83" vaporized=""/>
    <tripinfo id="W2E_11" depart="245.00" departLane="WE0_0" departPos="5.00" departSpeed="10.00" departDelay="0.00" arrival="367.00" arrivalLane="WE1_0" arrivalPos="892.80" arrivalSpeed="20.00" duration="122.00" routeLength="1795.00" waitingTime="0.00" waitingCount="0" stopTime="0.00" timeLoss="31.55" rerouteNo="0" devices="tripinfo_W2E_11 battery_W2E_11" vType="ego_car" speedFactor="1.09" vaporized=""/>
    <tripinfo id="E2W_8" depart="226.00" departLane="EW0_0" departPos="5.00" departSpeed="10.00" departDelay="0.00" arrival="369.00" arrivalLane="EW1_0" arrivalPos="892.80" arrivalSpeed="17.72" duration="143.00" routeLength="1795.00" waitingTime="0.00" waitingCount="0" stopTime="0.00" timeLoss="41.67" rerouteNo="0" devices="tripinfo_E2W_8 battery_E2W_8" vType="ego_car" speedFactor="0.89" vaporized=""/>
    <tripinfo id="E2W_9" depart="233.00" departLane="EW0_0" departPos="5.00" departSpeed="10.00" departDelay="0.00" arrival="371.00" arrivalLane="EW1_0" arrivalPos="892.80" arrivalSpeed="18.76" duration="138.00" routeLength="1795.00" waitingTime="0.00" waitingCount="0" stopTime="0.00" timeLoss="41.54" rerouteNo="0" devices="tripinfo_E2W_9 battery_E2W_9" vType="ego_car" speedFactor="0.94" vaporized=""/>
    <tripinfo id="E2W_10" depart="243.00" departLane="EW0_0" departPos="5.00" departSpeed="10.00" departDelay="0.00" arrival="376.00" arrivalLane="EW1_0" arrivalPos="892.80" arrivalSpeed="17.14" duration="133.00" routeLength="1795.00" waitingTime="0.00" waitingCount="0" stopTime="0.00" timeLoss="27.78" rerouteNo="0" devices="tripinfo_E2W_10 battery_E2W_10" vType="ego_car" speedFactor="0.86" vaporized=""/>
    <tripinfo id="W2E_12" depart="297.00" departLane="WE0_0" departPos="5.00" departSpeed="10.00" departDelay="0.00" arrival="388.00" arrivalLane="WE1_0" arrivalPos="892.80" arrivalSpeed="20.00" duration="91.00" routeLength="1795.00" waitingTime="0.00" waitingCount="0" stopTime="0.00" timeLoss="1.04" rerouteNo="0" devices="tripinfo_W2E_12 battery_W2E_12" vType="ego_car" speedFactor="1.03" vaporized=""/>
    <tripinfo id="E2W_13" depart="307.00" departLane="EW0_0" departPos="5.00" departSpeed="10.00" departDelay="0.00" arrival="453.00" arrivalLane="EW1_0" arrivalPos="892.80" arrivalSpeed="20.00" duration="146.00" routeLength="1795.00" waitingTime="0.00" waitingCount="0" stopTime="0.00" timeLoss="55.26" rerouteNo="0" devices="tripinfo_E2W_13 battery_E2W_13" vType="ego_car" speedFactor="1.05" vaporized=""/>
    <tripinfo id="E2W_14" depart="313.00" departLane="EW0_0" departPos="5.00" departSpeed="10.00" departDelay="0.00" arrival="454.00" arrivalLane="EW1_0" arrivalPos="892.80" arrivalSpeed="20.00" duration="141.00" routeLength="1795.00" waitingTime="0.00" waitingCount="0" stopTime="0.00" timeLoss="50.58" rerouteNo="0" devices="tripinfo_E2W_14 battery_E2W_14" vType="ego_car" speedFactor="1.12" vaporized=""/>
    <tripinfo id="W2E_15" depart="320.00" departLane="WE0_0" departPos="5.00" departSpeed="10.00" departDelay="0.00" arrival="455.00" arrivalLane="WE1_0" arrivalPos="892.80" arrivalSpeed="19.82" duration="135.00" routeLength="1795.00" waitingTime="0.00" waitingCount="0" stopTime="0.00" timeLoss="44.02" rerouteNo="0" devices="tripinfo_W2E_15 battery_W2E_15" vType="ego_car" speedFactor="0.99" vaporized=""/>
    <tripinfo id="E2W_16" depart="326.00" departLane="EW0_0" departPos="5.00" departSpeed="10.00" departDelay="0.00" arrival="459.00" arrivalLane="EW1_0" arrivalPos="892.80" arrivalSpeed="18.54" duration="133.00" routeLength="1795.00" waitingTime="0.00" waitingCount="0" stopTime="0.00" timeLoss="35.17" rerouteNo="0" devices="tripinfo_E2W_16 battery_E2W_16" vType="ego_car" speedFactor="0.93" vaporized=""/>
    <tripinfo id="E2W_20" depart="358.00" departLane="EW0_0" departPos="5.00" departSpeed="10.00" departDelay="0.00" arrival="460.00" arrivalLane="EW1_0" arrivalPos="892.80" arrivalSpeed="20.00" duration="102.00" routeLength="1795.00" waitingTime="0.00" waitingCount="0" stopTime="0.00" timeLoss="11.95" rerouteNo="0" devices="tripinfo_E2W_20 battery_E2W_20" vType="ego_car" speedFactor="1.16" vaporized=""/>
    <tripinfo id="W2E_17" depart="339.00" departLane="WE0_0" departPos="5.00" departSpeed="10.00" departDelay="0.00" arrival="462.00" arrivalLane="WE1_0" arrivalPos="892.80" arrivalSpeed="17.57" duration="123.00" routeLength="1795.00" waitingTime="0.00" waitingCount="0" stopTime="0.00" timeLoss="20.28" rerouteNo="0" devices="tripinfo_W2E_17 battery_W2E_17" vType="ego_car" speedFactor="0.88" vaporized=""/>
    <tripinfo id="W2E_18" depart="344.00" departLane="WE0_0" departPos="5.00" departSpeed="10.00" departDelay="0.00" arrival="463.00" arrivalLane="WE1_0" arrivalPos="892.80" arrivalSpeed="18.83" duration="119.00" routeLength="1795.00" waitingTime="0.00" waitingCount="0" stopTime="0.00" timeLoss="23.40" rerouteNo="0" devices="tripinfo_W2E_18 battery_W2E_18" vType="ego_car" speedFactor="0.94" vaporized=""/>
    <tripinfo id="W2E_19" depart="350.00" departLane="WE0_0" departPos="5.00" departSpeed="10.00" departDelay="0.00" arrival="465.00" arrivalLane="WE1_0" arrivalPos="892.80" arrivalSpeed="18.72" duration="115.00" routeLength="1795.00" waitingTime="0.00" waitingCount="0" stopTime="0.00" timeLoss="18.19" rerouteNo="0" devices="tripinfo_W2E_19 battery_W2E_19" vType="ego_car" speedFactor="0.94" vaporized=""/>
    <tripinfo id="W2E_21" depart="387.00" departLane="WE0_0" departPos="5.00" departSpeed="10.00" departDelay="0.00" arrival="479.00" arrivalLane="WE1_0" arrivalPos="892.80" arrivalSpeed="20.00" duration="92.00" routeLength="1795.00" waitingTime="0.00" waitingCount="0" stopTime="0.00" timeLoss="1.44" rerouteNo="0" devices="tripinfo_W2E_21 battery_W2E_21" vType="ego_car" speedFactor="1.02" vaporized=""/>
    <tripinfo id="W2E_22" depart="397.00" departLane="WE0_0" departPos="5.00" departSpeed="10.00" departDelay="0.00" arrival="542.00" arrivalLane="WE1_0" arrivalPos="892.80" arrivalSpeed="20.00" duration="145.00" routeLength="1795.00" waitingTime="0.00" waitingCount="0" stopTime="0.00" timeLoss="55.16" rerouteNo="0" devices="tripinfo_W2E_22 battery_W2E_22" vType="ego_car" speedFactor="1.01" vaporized=""/>
    <tripinfo id="W2E_23" depart="409.00" departLane="WE0_0" departPos="5.00" departSpeed="10.00" departDelay="0.00" arrival="545.00" arrivalLane="WE1_0" arrivalPos="892.80" arrivalSpeed="19.50" duration="136.00" routeLength="1795.00" waitingTime="0.00" waitingCount="0" stopTime="0.00" timeLoss="43.27" rerouteNo="0" devices="tripinfo_W2E_23 battery_W2E_23" vType="ego_car" speedFactor="0.97" vaporized=""/>
    <tripinfo id="E2W_24" depart="409.00" departLane="EW0_0" departPos="5.00" departSpeed="10.00" departDelay="0.00" arrival="548.00" arrivalLane="EW1_0" arrivalPos="892.80" arrivalSpeed="17.79" duration="139.00" routeLength="1795.00" waitingTime="0.00" waitingCount="0" stopTime="0.00" timeLoss="37.39" rerouteNo="0" devices="tripinfo_E2W_24 battery_E2W_24" vType="ego_car" speedFactor="0.89" vaporized=""/>
    <tripinfo id="E2W_26" depart="422.00" departLane="EW0_0" departPos="5.00" departSpeed="10.00" departDelay="0.00" arrival="550.00" arrivalLane="EW1_0" arrivalPos="892.80" arrivalSpeed="17.45" duration="128.00" routeLength="1795.00" waitingTime="0.00" waitingCount="0" stopTime="0.00" timeLoss="24.75" rerouteNo="0" devices="tripinfo_E2W_26 battery_E2W_26" vType="ego_car" speedFactor="0.87" vaporized=""/>
    <tripinfo id="E2W_29" depart="441.00" departLane="EW0_0" departPos="5.00" departSpeed="10.00" departDelay="0.00" arrival="551.00" arrivalLane="EW1_0" arrivalPos="892.80" arrivalSpeed="18.95" duration="110.00" routeLength="1795.00" waitingTime="0.00" waitingCount="0" stopTime="0.00" timeLoss="20.12" rerouteNo="0" devices="tripinfo_E2W_29 battery_E2W_29" vType="ego_car" speedFactor="1.13" vaporized=""/>
    <tripinfo id="W2E_25" depart="422.00" departLane="WE0_0" departPos="5.00" departSpeed="10.00" departDelay="0.00" arrival="554.00" arrivalLane="WE1_0" arrivalPos="892.80" arrivalSpeed="16.51" duration="132.00" routeLength="1795.00" waitingTime="0.00" waitingCount="0" stopTime="0.00" timeLoss="23.26" rerouteNo="0" devices="tripinfo_W2E_25 battery_W2E_25" vType="ego_car" speedFactor="0.83" vaporized=""/>
    <tripinfo id="E2W_30" depart="447.00" departLane="EW0_0" departPos="5.00" departSpeed="10.00" departDelay="0.00" arrival="554.00" arrivalLane="EW1_0" arrivalPos="892.80" arrivalSpeed="18.63" duration="107.00" routeLength="1795.00" waitingTime="0.00" waitingCount="0" stopTime="0.00" timeLoss="9.79" rerouteNo="0" devices="tripinfo_E2W_30 battery_E2W_30" vType="ego_car" speedFactor="0.93" vaporized=""/>
    <tripinfo id="W2E_27" depart="438.00" departLane="WE0_0" departPos="5.00" departSpeed="10.00" departDelay="0.00" arrival="556.00" arrivalLane="WE1_0" arrivalPos="892.80" arrivalSpeed="18.34" duration="118.00" routeLength="1795.00" waitingTime="0.00" waitingCount="0" stopTime="0.00" timeLoss="19.35" rerouteNo="0" devices="tripinfo_W2E_27 battery_W2E_27" vType="ego_car" speedFactor="0.92" vaporized=""/>
    <tripinfo id="W2E_28" depart="440.00" departLane="WE0_0" departPos="5.00" departSpeed="10.00" departDelay="0.00" arrival="557.00" arrivalLane="WE1_0" arrivalPos="892.80" arrivalSpeed="18.98" duration="117.00" routeLength="1795.00" waitingTime="0.00" waitingCount="0" stopTime="0.00" timeLoss="21.91" rerouteNo="0" devices="tripinfo_W2E_28 battery_W2E_28" vType="ego_car" speedFactor="0.95" vaporized=""/>
    <tripinfo id="W2E_31" depart="464.00" departLane="WE0_0" departPos="5.00" departSpeed="10.00" departDelay="0.00" arrival="559.00" arrivalLane="WE1_0" arrivalPos="892.80" arrivalSpeed="20.00" duration="95.00" routeLength="1795.00" waitingTime="0.00" waitingCount="0" stopTime="0.00" timeLoss="4.59" rerouteNo="0" devices="tripinfo_W2E_31 battery_W2E_31" vType="ego_car" speedFactor="1.18" vaporized=""/>
    <tripinfo id="W2E_32" depart="477.00" departLane="WE0_0" departPos="5.00" departSpeed="10.00" departDelay="0.00" arrival="569.00" arrivalLane="WE1_0" arrivalPos="892.80" arrivalSpeed="20.00" duration="92.00" routeLength="1795.00" waitingTime="0.00" waitingCount="0" stopTime="0.00" timeLoss="1.27" rerouteNo="0" devices="tripinfo_W2E_32 battery_W2E_32" vType="ego_car" speedFactor="1.15" vaporized=""/>
    <tripinfo id="W2E_33" depart="484.00" departLane="WE0_0" departPos="5.00" departSpeed="10.00" departDelay="0.00" arrival="576.00" arrivalLane="WE1_0" arrivalPos="892.80" arrivalSpeed="20.00" duration="92.00" routeLength="1795.00" waitingTime="0.00" waitingCount="0" stopTime="0.00" timeLoss="2.08" rerouteNo="0" devices="tripinfo_W2E_33 battery_W2E_33" vType="ego_car" speedFactor="1.01" vaporized=""/>
    <tripinfo id="W2E_34" depart="487.00" departLane="WE0_0" departPos="5.00" departSpeed="10.00" departDelay="0.00" arrival="632.00" arrivalLane="WE1_0" arrivalPos="892.80" arrivalSpeed="20.00" duration="145.00" routeLength="1795.00" waitingTime="0.00" waitingCount="0" stopTime="0.00" timeLoss="55.01" rerouteNo="0" devices="tripinfo_W2E_34 battery_W2E_34" vType="ego_car" speedFactor="1.17" vaporized=""/>
    <tripinfo id="W2E_35" depart="489.00" departLane="WE0_0" departPos="5.00" departSpeed="10.00" departDelay="0.00" arrival="634.00" arrivalLane="WE1_0" arrivalPos="892.80" arrivalSpeed="19.90" duration="145.00" routeLength="1795.00" waitingTime="0.00" waitingCount="0" stopTime="0.00" timeLoss="54.05" rerouteNo="0" devices="tripinfo_W2E_35 battery_W2E_35" vType="ego_car" speedFactor="0.99" vaporized=""/>
    <tripinfo id="E2W_37" depart="492.00" departLane="EW0_0" departPos="5.00" departSpeed="10.00" departDelay="0.00" arrival="634.00" arrivalLane="EW1_0" arrivalPos="892.80" arrivalSpeed="19.46" duration="142.00" routeLength="1795.00" waitingTime="0.00" waitingCount="0" stopTime="0.00" timeLoss="48.88" rerouteNo="0" devices="tripinfo_E2W_37 battery_E2W_37" vType="ego_car" speedFactor="0.97" vaporized=""/>
    <tripinfo id="W2E_36" depart="490.00" departLane="WE0_0" departPos="5.00" departSpeed="10.00" departDelay="0.00" arrival="635.00" arrivalLane="WE1_0" arrivalPos="892.80" arrivalSpeed="20.00" duration="145.00" routeLength="1795.00" waitingTime="0.00" waitingCount="0" stopTime="0.00" timeLoss="54.87" rerouteNo="0" devices="tripinfo_W2E_36 battery_W2E_36" vType="ego_car" speedFactor="1.02" vaporized=""/>
    <tripinfo id="E2W_38" depart="501.00" departLane="EW0_0" departPos="5.00" departSpeed="10.00" departDelay="0.00" arrival="635.00" arrivalLane="EW1_0" arrivalPos="892.80" arrivalSpeed="20.00" duration="134.00" routeLength="1795.00" waitingTime="0.00" waitingCount="0" stopTime="0.00" timeLoss="43.64" rerouteNo="0" devices="tripinfo_E2W_38 battery_E2W_38" vType="ego_car" speedFactor="1.18" vaporized=""/>
    <tripinfo id="W2E_39" depart="501.00" departLane="WE0_0" departPos="5.00" departSpeed="10.00" departDelay="0.00" arrival="636.00" arrivalLane="WE1_0" arrivalPos="892.80" arrivalSpeed="20.00" duration="135.00" routeLength="1795.00" waitingTime="0.00" waitingCount="0" stopTime="0.00" timeLoss="45.21" rerouteNo="0" devices="tripinfo_W2E_39 battery_W2E_39" vType="ego_car" speedFactor="1.10" vaporized=""/>
    <tripinfo id="E2W_43" depart="513.00" departLane="EW0_0" departPos="5.00" departSpeed="10.00" departDelay="0.00" arrival="636.00" arrivalLane="EW1_0" arrivalPos="892.80" arrivalSpeed="20.00" duration="123.00" routeLength="1795.00" waitingTime="0.00" waitingCount="0" stopTime="0.00" timeLoss="32.94" rerouteNo="0" devices="tripinfo_E2W_43 battery_E2W_43" vType="ego_car" speedFactor="1.09" vaporized=""/>
    <tripinfo id="E2W_45" depart="544.00" departLane="EW0_0" departPos="5.00" departSpeed="10.00" departDelay="0.00" arrival="641.00" arrivalLane="EW1_0" arrivalPos="892.80" arrivalSpeed="20.00" duration="97.00" routeLength="1795.00" waitingTime="0.00" waitingCount="0" stopTime="0.00" timeLoss="6.49" rerouteNo="0" devices="tripinfo_E2W_45 battery_E2W_45" vType="ego_car" speedFactor="1.04" vaporized=""/>
    <tripinfo id="W2E_40" depart="504.00" departLane="WE0_0" departPos="5.00" departSpeed="10.00" departDelay="0.00" arrival="642.00" arrivalLane="WE1_0" arrivalPos="892.80" arrivalSpeed="18.01" duration="138.00" routeLength="1795.00" waitingTime="0.00" waitingCount="0" stopTime="0.00" timeLoss="38.30" rerouteNo="0" devices="tripinfo_W2E_40 battery_W2E_40" vType="ego_car" speedFactor="0.90" vaporized=""/>
    <tripinfo id="E2W_47" depart="545.00" departLane="EW0_0" departPos="5.00" departSpeed="10.00" departDelay="0.00" arrival="642.00" arrivalLane="EW1_0" arrivalPos="892.80" arrivalSpeed="19.95" duration="97.00" routeLength="1795.00" waitingTime="0.00" waitingCount="0" stopTime="0.00" timeLoss="6.66" rerouteNo="0" devices="tripinfo_E2W_47 battery_E2W_47" vType="ego_car" speedFactor="1.00" vaporized=""/>
    <tripinfo id="W2E_41" depart="507.00" departLane="WE0_0" departPos="5.00" departSpeed="10.00" departDelay="1.00" arrival="644.00" arrivalLane="WE1_0" arrivalPos="892.80" arrivalSpeed="20.00" duration="137.00" routeLength="1795.00" waitingTime="0.00" waitingCount="0" stopTime="0.00" timeLoss="46.43" rerouteNo="0" devices="tripinfo_W2E_41 battery_W2E_41" vType="ego_car" speedFactor="1.03" vaporized=""/>
    <tripinfo id="W2E_42" depart="509.00" departLane="WE0_0" departPos="5.00" departSpeed="10.00" departDelay="1.00" arrival="645.00" arrivalLane="WE1_0" arrivalPos="892.80" arrivalSpeed="19.14" duration="136.00" routeLength="1795.00" waitingTime="0.00" waitingCount="0" stopTime="0.00" timeLoss="41.75" rerouteNo="0" devices="tripinfo_W2E_42 battery_W2E_42" vType="ego_car" speedFactor="0.96" vaporized=""/>
    <tripinfo id="W2E_44" depart="536.00" departLane="WE0_0" departPos="5.00" departSpeed="10.00" departDelay="0.00" arrival="646.00" arrivalLane="WE1_0" arrivalPos="892.80" arrivalSpeed="20.00" duration="110.00" routeLength="1795.00" waitingTime="0.00" waitingCount="0" stopTime="0.00" timeLoss="20.04" rerouteNo="0" devices="tripinfo_W2E_44 battery_W2E_44" vType="ego_car" speedFactor="1.04" vaporized=""/>
    <tripinfo id="E2W_48" depart="551.00" departLane="EW0_0" departPos="5.00" departSpeed="10.00" departDelay="0.00" arrival="655.00" arrivalLane="EW1_0" arrivalPos="892.80" arrivalSpeed="18.01" duration="104.00" routeLength="1795.00" waitingTime="0.00" waitingCount="0" stopTime="0.00" timeLoss="4.01" rerouteNo="0" devices="tripinfo_E2W_48 battery_E2W_48" vType="ego_car" speedFactor="0.90" vaporized=""/>
    <tripinfo id="W2E_46" depart="544.00" departLane="WE0_0" departPos="5.00" departSpeed="10.00" departDelay="0.00" arrival="659.00" arrivalLane="WE1_0" arrivalPos="892.80" arrivalSpeed="20.00" duration="115.00" routeLength="1795.00" waitingTime="0.00" waitingCount="0" stopTime="0.00" timeLoss="24.26" rerouteNo="0" devices="tripinfo_W2E_46 battery_W2E_46" vType="ego_car" speedFactor="1.09" vaporized=""/>
    <tripinfo id="E2W_49" depart="568.00" departLane="EW0_0" departPos="5.00" departSpeed="10.00" departDelay="0.00" arrival="672.00" arrivalLane="EW1_0" arrivalPos="892.80" arrivalSpeed="17.54" duration="104.00" routeLength="1795.00" waitingTime="0.00" waitingCount="0" stopTime="0.00" timeLoss="0.68" rerouteNo="0" devices="tripinfo_E2W_49 battery_E2W_49" vType="ego_car" speedFactor="0.88" vaporized=""/>
    <tripinfo id="W2E_50" depart="583.00" departLane="WE0_0" departPos="5.00" departSpeed="10.00" departDelay="0.00" arrival="729.00" arrivalLane="WE1_0" arrivalPos="892.80" arrivalSpeed="17.01" duration="146.00" routeLength="1795.00" waitingTime="0.00" waitingCount="0" stopTime="0.00" timeLoss="40.39" rerouteNo="0" devices="tripinfo_W2E_50 battery_W2E_50" vType="ego_car" speedFactor="0.85" vaporized=""/>
    <tripinfo id="W2E_52" depart="587.00" departLane="WE0_0" departPos="5.00" departSpeed="10.00" departDelay="0.00" arrival="731.00" arrivalLane="WE1_0" arrivalPos="892.80" arrivalSpeed="20.00" duration="144.00" routeLength="1795.00" waitingTime="0.00" waitingCount="0" stopTime="0.00" timeLoss="53.41" rerouteNo="0" devices="tripinfo_W2E_52 battery_W2E_52" vType="ego_car" speedFactor="1.17" vaporized=""/>
    <tripinfo id="W2E_53" depart="590.00" departLane="WE0_0" departPos="5.00" departSpeed="10.00" departDelay="1.00" arrival="732.00" arrivalLane="WE1_0" arrivalPos="892.80" arrivalSpeed="20.00" duration="142.00" routeLength="1795.00" waitingTime="0.00" waitingCount="0" stopTime="0.00" timeLoss="51.71" rerouteNo="0" devices="tripinfo_W2E_53 battery_W2E_53" vType="ego_car" speedFactor="1.02" vaporized=""/>
    <tripinfo id="W2E_54" depart="598.00" departLane="WE0_0" departPos="5.00" departSpeed="10.00" departDelay="0.00" arrival="733.00" arrivalLane="WE1_0" arrivalPos="892.80" arrivalSpeed="20.00" duration="135.00" routeLength="1795.00" waitingTime="0.00" waitingCount="0" stopTime="0.00" timeLoss="45.00" rerouteNo="0" devices="tripinfo_W2E_54 battery_W2E_54" vType="ego_car" speedFactor="1.10" vaporized=""/>
    <tripinfo id="W2E_55" depart="612.00" departLane="WE0_0" departPos="5.00" departSpeed="10.00" departDelay="0.00" arrival="735.00" arrivalLane="WE1_0" arrivalPos="892.80" arrivalSpeed="20.00" duration="123.00" routeLength="1795.00" waitingTime="0.00" waitingCount="0" stopTime="0.00" timeLoss="32.30" rerouteNo="0" devices="tripinfo_W2E_55 battery_W2E_55" vType="ego_car" speedFactor="1.00" vaporized=""/>
    <tripinfo id="W2E_56" depart="616.00" departLane="WE0_0" departPos="5.00" departSpeed="10.00" departDelay="0.00" arrival="736.00" arrivalLane="WE1_0" arrivalPos="892.80" arrivalSpeed="19.92" duration="120.00" routeLength="1795.00" waitingTime="0.00" waitingCount="0" stopTime="0.00" timeLoss="29.24" rerouteNo="0" devices="tripinfo_W2E_56 battery_W2E_56" vType="ego_car" speedFactor="1.00" vaporized=""/>
    <tripinfo id="E2W_51" depart="585.00" departLane="EW0_0" departPos="5.00" departSpeed="10.00" departDelay="0.00" arrival="739.00" arrivalLane="EW1_0" arrivalPos="892.80" arrivalSpeed="17.10" duration="154.00" routeLength="1795.00" waitingTime="0.00" waitingCount="0" stopTime="0.00" timeLoss="48.30" rerouteNo="0" devices="tripinfo_E2W_51 battery_E2W_51" vType="ego_car" speedFactor="0.85" vaporized=""/>
    <tripinfo id="E2W_57" depart="636.00" departLane="EW0_0" departPos="5.00" departSpeed="10.00" departDelay="0.00" arrival="740.00" arrivalLane="EW1_0" arrivalPos="892.80" arrivalSpeed="17.98" duration="104.00" routeLength="1795.00" waitingTime="0.00" waitingCount="0" stopTime="0.00" timeLoss="3.75" rerouteNo="0" devices="tripinfo_E2W_57 battery_E2W_57" vType="ego_car" speedFactor="0.90" vaporized=""/>
    <tripinfo id="E2W_58" depart="653.00" departLane="EW0_0" departPos="5.00" departSpeed="10.00" departDelay="0.00" arrival="747.00" arrivalLane="EW1_0" arrivalPos="892.80" arrivalSpeed="20.00" duration="94.00" routeLength="1795.00" waitingTime="0.00" waitingCount="0" stopTime="0.00" timeLoss="3.47" rerouteNo="0" devices="tripinfo_E2W_58 battery_E2W_58" vType="ego_car" speedFactor="1.14" vaporized=""/>
    <tripinfo id="W2E_59" depart="678.00" departLane="WE0_0" departPos="5.00" departSpeed="10.00" departDelay="0.00" arrival="813.00" arrivalLane="WE1_0" arrivalPos="892.80" arrivalSpeed="20.00" duration="135.00" routeLength="1795.00" waitingTime="0.00" waitingCount="0" stopTime="0.00" timeLoss="45.05" rerouteNo="0" devices="tripinfo_W2E_59 battery_W2E_59" vType="ego_car" speedFactor="1.02" vaporized=""/>
    <tripinfo id="E2W_60" depart="680.00" departLane="EW0_0" departPos="5.00" departSpeed="10.00" departDelay="0.00" arrival="814.00" arrivalLane="EW1_0" arrivalPos="892.80" arrivalSpeed="19.39" duration="134.00" routeLength="1795.00" waitingTime="0.00" waitingCount="0" stopTime="0.00" timeLoss="40.90" rerouteNo="0" devices="tripinfo_E2W_60 battery_E2W_60" vType="ego_car" speedFactor="0.97" vaporized=""/>
    <tripinfo id="E2W_61" depart="699.00" departLane="EW0_0" departPos="5.00" departSpeed="10.00" departDelay="0.00" arrival="815.00" arrivalLane="EW1_0" arrivalPos="892.80" arrivalSpeed="20.00" duration="116.00" routeLength="1795.00" waitingTime="0.00" waitingCount="0" stopTime="0.00" timeLoss="26.00" rerouteNo="0" devices="tripinfo_E2W_61 battery_E2W_61" vType="ego_car" speedFactor="1.08" vaporized=""/>
    <tripinfo id="W2E_62" depart="701.00" departLane="WE0_0" departPos="5.00" departSpeed="10.00" departDelay="0.00" arrival="815.00" arrivalLane="WE1_0" arrivalPos="892.80" arrivalSpeed="20.00" duration="114.00" routeLength="1795.00" waitingTime="0.00" waitingCount="0" stopTime="0.00" timeLoss="23.42" rerouteNo="0" devices="tripinfo_W2E_62 battery_W2E_62" vType="ego_car" speedFactor="1.12" vaporized=""/>
    <tripinfo id="E2W_63" depart="704.00" departLane="EW0_0" departPos="5.00" departSpeed="10.00" departDelay="0.00" arrival="817.00" arrivalLane="EW1_0" arrivalPos="892.80" arrivalSpeed="20.00" duration="113.00" routeLength="1795.00" waitingTime="0.00" waitingCount="0" stopTime="0.00" timeLoss="22.30" rerouteNo="0" devices="tripinfo_E2W_63 battery_E2W_63" vType="ego_car" speedFactor="1.02" vaporized=""/>
    <tripinfo id="E2W_64" depart="706.00" departLane="EW0_0" departPos="5.00" departSpeed="10.00" departDelay="1.00" arrival="818.00" arrivalLane="EW1_0" arrivalPos="892.80" arrivalSpeed="19.74" duration="112.00" routeLength="1795.00" waitingTime="0.00" waitingCount="0" stopTime="0.00" timeLoss="20.43" rerouteNo="0" devices="tripinfo_E2W_64 battery_E2W_64" vType="ego_car" speedFactor="0.99" vaporized=""/>
    <tripinfo id="E2W_65" depart="710.00" departLane="EW0_0" departPos="5.00" departSpeed="10.00" departDelay="0.00" arrival="821.00" arrivalLane="EW1_0" arrivalPos="892.80" arrivalSpeed="18.75" duration="111.00" routeLength="1795.00" waitingTime="0.00" waitingCount="0" stopTime="0.00" timeLoss="14.53" rerouteNo="0" devices="tripinfo_E2W_65 battery_E2W_65" vType="ego_car" speedFactor="0.94" vaporized=""/>
    <tripinfo id="W2E_66" depart="711.00" departLane="WE0_0" departPos="5.00" departSpeed="10.00" departDelay="0.00" arrival="822.00" arrivalLane="WE1_0" arrivalPos="892.80" arrivalSpeed="17.65" duration="111.00" routeLength="1795.00" waitingTime="0.00" waitingCount="0" stopTime="0.00" timeLoss="8.57" rerouteNo="0" devices="tripinfo_W2E_66 battery_W2E_66" vType="ego_car" speedFactor="0.88" vaporized=""/>
    <tripinfo id="W2E_67" depart="721.00" departLane="WE0_0" departPos="5.00" departSpeed="10.00" departDelay="0.00" arrival="829.00" arrivalLane="WE1_0" arrivalPos="892.80" arrivalSpeed="18.14" duration="108.00" routeLength="1795.00" waitingTime="0.00" waitingCount="0" stopTime="0.00" timeLoss="8.30" rerouteNo="0" devices="tripinfo_W2E_67 battery_W2E_67" vType="ego_car" speedFactor="0.91" vaporized=""/>
    <tripinfo id="E2W_68" depart="739.00" departLane="EW0_0" departPos="5.00" departSpeed="10.00" departDelay="0.00" arrival="839.00" arrivalLane="EW1_0" arrivalPos="892.80" arrivalSpeed="18.29" duration="100.00" routeLength="1795.00" waitingTime="0.00" waitingCount="0" stopTime="0.00" timeLoss="1.09" rerouteNo="0" devices="tripinfo_E2W_68 battery_E2W_68" vType="ego_car" speedFactor="0.91" vaporized=""/>
    <tripinfo id="E2W_69" depart="749.00" departLane="EW0_0" departPos="5.00" departSpeed="10.00" departDelay="0.00" arrival="840.00" arrivalLane="EW1_0" arrivalPos="892.80" arrivalSpeed="20.00" duration="91.00" routeLength="1795.00" waitingTime="0.00" waitingCount="0" stopTime="0.00" timeLoss="1.16" rerouteNo="0" devices="tripinfo_E2W_69 battery_E2W_69" vType="ego_car" speedFactor="1.04" vaporized=""/>
    <tripinfo id="E2W_70" depart="752.00" departLane="EW0_0" departPos="5.00" departSpeed="10.00" departDelay="0.00" arrival="844.00" arrivalLane="EW1_0" arrivalPos="892.80" arrivalSpeed="20.00" duration="92.00" routeLength="1795.00" waitingTime="0.00" waitingCount="0" stopTime="0.00" timeLoss="1.39" rerouteNo="0" devices="tripinfo_E2W_70 battery_E2W_70" vType="ego_car" speedFactor="1.02" vaporized=""/>