<?xml version="1.0" encoding="UTF-8"?>

<!-- generated on 2023-04-13 16:20:44 by Eclipse SUMO sumo Version 1.13.0
<configuration xmlns:xsi="http://www.w3.org/2001/XMLSchema-instance" xsi:noNamespaceSchemaLocation="http://sumo.dlr.de/xsd/sumoConfiguration.xsd">

    <input>
        <net-file value="/home/yuwz/tmp/graduation_design/test_rou_net/intersection.net.xml"/>
        <route-files value="/home/yuwz/tmp/graduation_design/test_rou_net/intersection10.rou.xml"/>
    </input>

    <output>
        <tripinfo-output value="/home/yuwz/tmp/graduation_design/test_rou_net/tripinfo.xml"/>
    </output>

    <time>
        <begin value="0"/>
        <end value="3600"/>
        <step-length value="1"/>
    </time>

    <processing>
        <waiting-time-memory value="3600"/>
    </processing>

    <report>
        <no-step-log value="true"/>
    </report>

    <traci_server>
        <remote-port value="35507"/>
    </traci_server>

    <gui_only>
        <tracker-interval value="1"/>
    </gui_only>

</configuration>
-->

<tripinfos xmlns:xsi="http://www.w3.org/2001/XMLSchema-instance" xsi:noNamespaceSchemaLocation="http://sumo.dlr.de/xsd/tripinfo_file.xsd">
    <tripinfo id="S2N_1" depart="32.00" departLane="SN_0" departPos="5.00" departSpeed="10.00" departDelay="0.00" arrival="84.00" arrivalLane="-NS_0" arrivalPos="250.00" arrivalSpeed="20.00" duration="52.00" routeLength="509.40" waitingTime="18.00" waitingCount="1" stopTime="0.00" timeLoss="25.68" rerouteNo="0" devices="tripinfo_S2N_1" vType="ego_car" speedFactor="1.06" vaporized=""/>
    <tripinfo id="S2N_2" depart="101.00" departLane="SN_0" departPos="5.00" departSpeed="10.00" departDelay="0.00" arrival="152.00" arrivalLane="-NS_0" arrivalPos="250.00" arrivalSpeed="18.77" duration="51.00" routeLength="509.40" waitingTime="17.00" waitingCount="1" stopTime="0.00" timeLoss="23.74" rerouteNo="0" devices="tripinfo_S2N_2" vType="ego_car" speedFactor="0.94" vaporized=""/>
    <tripinfo id="N2S_3" depart="103.00" departLane="NS_0" departPos="5.00" departSpeed="10.00" departDelay="0.00" arrival="152.00" arrivalLane="-SN_0" arrivalPos="250.00" arrivalSpeed="20.00" duration="49.00" routeLength="509.40" waitingTime="15.00" waitingCount="1" stopTime="0.00" timeLoss="22.72" rerouteNo="0" devices="tripinfo_N2S_3" vType="ego_car" speedFactor="1.01" vaporized=""/>
    <tripinfo id="N2S_5" depart="145.00" departLane="NS_0" departPos="5.00" departSpeed="10.00" departDelay="0.00" arrival="173.00" arrivalLane="-SN_0" arrivalPos="250.00" arrivalSpeed="20.00" duration="28.00" routeLength="509.40" waitingTime="0.00" waitingCount="0" stopTime="0.00" timeLoss="1.75" rerouteNo="0" devices="tripinfo_N2S_5" vType="ego_car" speedFactor="1.03" vaporized=""/>
    <tripinfo id="W2E_4" depart="125.00" departLane="WE_0" departPos="5.00" departSpeed="10.00" departDelay="0.00" arrival="186.00" arrivalLane="-EW_0" arrivalPos="250.00" arrivalSpeed="20.00" duration="61.00" routeLength="509.40" waitingTime="17.00" waitingCount="1" stopTime="0.00" timeLoss="34.78" rerouteNo="0" devices="tripinfo_W2E_4" vType="ego_car" speedFactor="1.08" vaporized=""/>
    <tripinfo id="N2S_7" depart="197.00" departLane="NS_0" departPos="5.00" departSpeed="10.00" departDelay="0.00" arrival="230.00" arrivalLane="-SN_0" arrivalPos="250.00" arrivalSpeed="20.00" duration="33.00" routeLength="509.40" waitingTime="0.00" waitingCount="0" stopTime="0.00" timeLoss="6.60" rerouteNo="0" devices="tripinfo_N2S_7" vType="ego_car" speedFactor="1.05" vaporized=""/>
    <tripinfo id="N2S_8" depart="211.00" departLane="NS_0" departPos="5.00" departSpeed="10.00" departDelay="0.00" arrival="250.00" arrivalLane="-SN_0" arrivalPos="250.00" arrivalSpeed="17.72" duration="39.00" routeLength="509.40" waitingTime="0.00" waitingCount="0" stopTime="0.00" timeLoss="9.85" rerouteNo="0" devices="tripinfo_N2S_8" vType="ego_car" speedFactor="0.89" vaporized=""/>
    <tripinfo id="E2W_12" depart="225.00" departLane="EW_0" departPos="5.00" departSpeed="10.00" departDelay="0.00" arrival="253.00" arrivalLane="-WE_0" arrivalPos="250.00" arrivalSpeed="20.00" duration="28.00" routeLength="509.40" waitingTime="0.00" waitingCount="0" stopTime="0.00" timeLoss="2.27" rerouteNo="0" devices="tripinfo_E2W_12" vType="ego_car" speedFactor="1.03" vaporized=""/>
    <tripinfo id="W2E_6" depart="183.00" departLane="WE_0" departPos="5.00" departSpeed="10.00" departDelay="0.00" arrival="256.00" arrivalLane="-EW_0" arrivalPos="250.00" arrivalSpeed="16.62" duration="73.00" routeLength="509.40" waitingTime="25.00" waitingCount="2" stopTime="0.00" timeLoss="41.62" rerouteNo="0" devices="tripinfo_W2E_6" vType="ego_car" speedFactor="0.83" vaporized=""/>
    <tripinfo id="W2E_9" depart="214.00" departLane="WE_0" departPos="5.00" departSpeed="10.00" departDelay="0.00" arrival="258.00" arrivalLane="-EW_0" arrivalPos="250.00" arrivalSpeed="18.76" duration="44.00" routeLength="509.40" waitingTime="0.00" waitingCount="0" stopTime="0.00" timeLoss="16.14" rerouteNo="0" devices="tripinfo_W2E_9" vType="ego_car" speedFactor="0.94" vaporized=""/>
    <tripinfo id="W2E_11" depart="222.00" departLane="WE_0" departPos="5.00" departSpeed="10.00" departDelay="0.00" arrival="260.00" arrivalLane="-EW_0" arrivalPos="250.00" arrivalSpeed="20.00" duration="38.00" routeLength="509.40" waitingTime="0.00" waitingCount="0" stopTime="0.00" timeLoss="11.98" rerouteNo="0" devices="tripinfo_W2E_11" vType="ego_car" speedFactor="1.09" vaporized=""/>
    <tripinfo id="W2E_13" depart="229.00" departLane="WE_0" departPos="5.00" departSpeed="10.00" departDelay="0.00" arrival="263.00" arrivalLane="-EW_0" arrivalPos="250.00" arrivalSpeed="20.00" duration="34.00" routeLength="509.40" waitingTime="0.00" waitingCount="0" stopTime="0.00" timeLoss="8.10" rerouteNo="0" devices="tripinfo_W2E_13" vType="ego_car" speedFactor="1.05" vaporized=""/>
    <tripinfo id="S2N_16" depart="253.00" departLane="SN_0" departPos="5.00" departSpeed="10.00" departDelay="0.00" arrival="288.00" arrivalLane="-NS_0" arrivalPos="250.00" arrivalSpeed="18.54" duration="35.00" routeLength="509.40" waitingTime="0.00" waitingCount="0" stopTime="0.00" timeLoss="7.36" rerouteNo="0" devices="tripinfo_S2N_16" vType="ego_car" speedFactor="0.93" vaporized=""/>
    <tripinfo id="N2S_10" depart="219.00" departLane="NS_0" departPos="5.00" departSpeed="10.00" departDelay="0.00" arrival="289.00" arrivalLane="-SN_0" arrivalPos="250.00" arrivalSpeed="17.14" duration="70.00" routeLength="509.40" waitingTime="32.00" waitingCount="1" stopTime="0.00" timeLoss="40.15" rerouteNo="0" devices="tripinfo_N2S_10" vType="ego_car" speedFactor="0.86" vaporized=""/>
    <tripinfo id="N2S_14" depart="251.00" departLane="NS_0" departPos="5.00" departSpeed="10.00" departDelay="0.00" arrival="292.00" arrivalLane="-SN_0" arrivalPos="250.00" arrivalSpeed="20.00" duration="41.00" routeLength="509.40" waitingTime="0.00" waitingCount="0" stopTime="0.00" timeLoss="14.91" rerouteNo="0" devices="tripinfo_N2S_14" vType="ego_car" speedFactor="1.12" vaporized=""/>
    <tripinfo id="W2E_15" depart="252.00" departLane="WE_0" departPos="5.00" departSpeed="10.00" departDelay="0.00" arrival="322.00" arrivalLane="-EW_0" arrivalPos="250.00" arrivalSpeed="19.82" duration="70.00" routeLength="509.40" waitingTime="29.00" waitingCount="1" stopTime="0.00" timeLoss="43.63" rerouteNo="0" devices="tripinfo_W2E_15" vType="ego_car" speedFactor="0.99" vaporized=""/>
    <tripinfo id="E2W_17" depart="278.00" departLane="EW_0" departPos="5.00" departSpeed="10.00" departDelay="0.00" arrival="323.00" arrivalLane="-WE_0" arrivalPos="250.00" arrivalSpeed="17.57" duration="45.00" routeLength="509.40" waitingTime="10.00" waitingCount="1" stopTime="0.00" timeLoss="15.66" rerouteNo="0" devices="tripinfo_E2W_17" vType="ego_car" speedFactor="0.88" vaporized=""/>
    <tripinfo id="W2E_21" depart="298.00" departLane="WE_0" departPos="5.00" departSpeed="10.00" departDelay="0.00" arrival="325.00" arrivalLane="-EW_0" arrivalPos="250.00" arrivalSpeed="20.00" duration="27.00" routeLength="509.40" waitingTime="0.00" waitingCount="0" stopTime="0.00" timeLoss="1.47" rerouteNo="0" devices="tripinfo_W2E_21" vType="ego_car" speedFactor="1.02" vaporized=""/>
    <tripinfo id="E2W_19" depart="291.00" departLane="EW_0" departPos="5.00" departSpeed="10.00" departDelay="0.00" arrival="327.00" arrivalLane="-WE_0" arrivalPos="250.00" arrivalSpeed="18.72" duration="36.00" routeLength="509.40" waitingTime="0.00" waitingCount="0" stopTime="0.00" timeLoss="7.81" rerouteNo="0" devices="tripinfo_E2W_19" vType="ego_car" speedFactor="0.94" vaporized=""/>
    <tripinfo id="E2W_20" depart="298.00" departLane="EW_0" departPos="5.00" departSpeed="10.00" departDelay="0.00" arrival="330.00" arrivalLane="-WE_0" arrivalPos="250.00" arrivalSpeed="20.00" duration="32.00" routeLength="509.40" waitingTime="0.00" waitingCount="0" stopTime="0.00" timeLoss="5.85" rerouteNo="0" devices="tripinfo_E2W_20" vType="ego_car" speedFactor="1.16" vaporized=""/>
    <tripinfo id="E2W_23" depart="303.00" departLane="EW_0" departPos="5.00" departSpeed="10.00" departDelay="0.00" arrival="333.00" arrivalLane="-WE_0" arrivalPos="250.00" arrivalSpeed="19.50" duration="30.00" routeLength="509.40" waitingTime="0.00" waitingCount="0" stopTime="0.00" timeLoss="3.73" rerouteNo="0" devices="tripinfo_E2W_23" vType="ego_car" speedFactor="0.97" vaporized=""/>
    <tripinfo id="W2E_29" depart="317.00" departLane="WE_0" departPos="5.00" departSpeed="10.00" departDelay="0.00" arrival="346.00" arrivalLane="-EW_0" arrivalPos="250.00" arrivalSpeed="20.00" duration="29.00" routeLength="509.40" waitingTime="0.00" waitingCount="0" stopTime="0.00" timeLoss="3.10" rerouteNo="0" devices="tripinfo_W2E_29" vType="ego_car" speedFactor="1.13" vaporized=""/>
    <tripinfo id="N2S_18" depart="290.00" departLane="NS_0" departPos="5.00" departSpeed="10.00" departDelay="0.00" arrival="356.00" arrivalLane="-SN_0" arrivalPos="250.00" arrivalSpeed="18.83" duration="66.00" routeLength="509.40" waitingTime="28.00" waitingCount="1" stopTime="0.00" timeLoss="38.71" rerouteNo="0" devices="tripinfo_N2S_18" vType="ego_car" speedFactor="0.94" vaporized=""/>
    <tripinfo id="S2N_22" depart="299.00" departLane="SN_0" departPos="5.00" departSpeed="10.00" departDelay="0.00" arrival="356.00" arrivalLane="-NS_0" arrivalPos="250.00" arrivalSpeed="20.00" duration="57.00" routeLength="509.40" waitingTime="15.00" waitingCount="1" stopTime="0.00" timeLoss="30.71" rerouteNo="0" devices="tripinfo_S2N_22" vType="ego_car" speedFactor="1.01" vaporized=""/>
    <tripinfo id="S2N_24" depart="304.00" departLane="SN_0" departPos="5.00" departSpeed="10.00" departDelay="0.00" arrival="360.00" arrivalLane="-NS_0" arrivalPos="250.00" arrivalSpeed="17.79" duration="56.00" routeLength="509.40" waitingTime="0.00" waitingCount="0" stopTime="0.00" timeLoss="27.22" rerouteNo="0" devices="tripinfo_S2N_24" vType="ego_car" speedFactor="0.89" vaporized=""/>
    <tripinfo id="N2S_25" depart="309.00" departLane="NS_0" departPos="5.00" departSpeed="10.00" departDelay="0.00" arrival="361.00" arrivalLane="-SN_0" arrivalPos="250.00" arrivalSpeed="16.51" duration="52.00" routeLength="509.40" waitingTime="0.00" waitingCount="0" stopTime="0.00" timeLoss="20.97" rerouteNo="0" devices="tripinfo_N2S_25" vType="ego_car" speedFactor="0.83" vaporized=""/>
    <tripinfo id="N2S_27" depart="314.00" departLane="NS_0" departPos="5.00" departSpeed="10.00" departDelay="2.00" arrival="363.00" arrivalLane="-SN_0" arrivalPos="250.00" arrivalSpeed="18.34" duration="49.00" routeLength="509.40" waitingTime="0.00" waitingCount="0" stopTime="0.00" timeLoss="21.01" rerouteNo="0" devices="tripinfo_N2S_27" vType="ego_car" speedFactor="0.92" vaporized=""/>
    <tripinfo id="S2N_26" depart="312.00" departLane="SN_0" departPos="5.00" departSpeed="10.00" departDelay="0.00" arrival="364.00" arrivalLane="-NS_0" arrivalPos="250.00" arrivalSpeed="17.45" duration="52.00" routeLength="509.40" waitingTime="0.00" waitingCount="0" stopTime="0.00" timeLoss="22.15" rerouteNo="0" devices="tripinfo_S2N_26" vType="ego_car" speedFactor="0.87" vaporized=""/>
    <tripinfo id="N2S_28" depart="319.00" departLane="NS_0" departPos="5.00" departSpeed="10.00" departDelay="4.00" arrival="366.00" arrivalLane="-SN_0" arrivalPos="250.00" arrivalSpeed="18.98" duration="47.00" routeLength="509.40" waitingTime="0.00" waitingCount="0" stopTime="0.00" timeLoss="19.48" rerouteNo="0" devices="tripinfo_N2S_28" vType="ego_car" speedFactor="0.95" vaporized=""/>
    <tripinfo id="N2S_33" depart="339.00" departLane="NS_0" departPos="5.00" departSpeed="10.00" departDelay="0.00" arrival="368.00" arrivalLane="-SN_0" arrivalPos="250.00" arrivalSpeed="20.00" duration="29.00" routeLength="509.40" waitingTime="0.00" waitingCount="0" stopTime="0.00" timeLoss="2.85" rerouteNo="0" devices="tripinfo_N2S_33" vType="ego_car" speedFactor="1.01" vaporized=""/>
    <tripinfo id="W2E_30" depart="324.00" departLane="WE_0" departPos="5.00" departSpeed="10.00" departDelay="0.00" arrival="391.00" arrivalLane="-EW_0" arrivalPos="250.00" arrivalSpeed="18.63" duration="67.00" routeLength="509.40" waitingTime="24.00" waitingCount="1" stopTime="0.00" timeLoss="38.71" rerouteNo="0" devices="tripinfo_W2E_30" vType="ego_car" speedFactor="0.93" vaporized=""/>
    <tripinfo id="W2E_31" depart="331.00" departLane="WE_0" departPos="5.00" departSpeed="10.00" departDelay="0.00" arrival="393.00" arrivalLane="-EW_0" arrivalPos="250.00" arrivalSpeed="20.00" duration="62.00" routeLength="509.40" waitingTime="1.00" waitingCount="1" stopTime="0.00" timeLoss="36.17" rerouteNo="0" devices="tripinfo_W2E_31" vType="ego_car" speedFactor="1.18" vaporized=""/>
    <tripinfo id="W2E_32" depart="340.00" departLane="WE_0" departPos="5.00" departSpeed="10.00" departDelay="4.00" arrival="396.00" arrivalLane="-EW_0" arrivalPos="250.00" arrivalSpeed="20.00" duration="56.00" routeLength="509.40" waitingTime="0.00" waitingCount="0" stopTime="0.00" timeLoss="30.24" rerouteNo="0" devices="tripinfo_W2E_32" vType="ego_car" speedFactor="1.15" vaporized=""/>
    <tripinfo id="W2E_34" depart="355.00" departLane="WE_0" departPos="5.00" departSpeed="10.00" departDelay="0.00" arrival="400.00" arrivalLane="-EW_0" arrivalPos="250.00" arrivalSpeed="20.00" duration="45.00" routeLength="509.40" waitingTime="0.00" waitingCount="0" stopTime="0.00" timeLoss="19.20" rerouteNo="0" devices="tripinfo_W2E_34" vType="ego_car" speedFactor="1.17" vaporized=""/>
    <tripinfo id="W2E_37" depart="375.00" departLane="WE_0" departPos="5.00" departSpeed="10.00" departDelay="0.00" arrival="404.00" arrivalLane="-EW_0" arrivalPos="250.00" arrivalSpeed="19.46" duration="29.00" routeLength="509.40" waitingTime="0.00" waitingCount="0" stopTime="0.00" timeLoss="2.15" rerouteNo="0" devices="tripinfo_W2E_37" vType="ego_car" speedFactor="0.97" vaporized=""/>
    <tripinfo id="N2S_35" depart="360.00" departLane="NS_0" departPos="5.00" departSpeed="10.00" departDelay="0.00" arrival="424.00" arrivalLane="-SN_0" arrivalPos="250.00" arrivalSpeed="19.90" duration="64.00" routeLength="509.40" waitingTime="22.00" waitingCount="2" stopTime="0.00" timeLoss="37.68" rerouteNo="0" devices="tripinfo_N2S_35" vType="ego_car" speedFactor="0.99" vaporized=""/>
    <tripinfo id="N2S_36" depart="374.00" departLane="NS_0" departPos="5.00" departSpeed="10.00" departDelay="0.00" arrival="427.00" arrivalLane="-SN_0" arrivalPos="250.00" arrivalSpeed="20.00" duration="53.00" routeLength="509.40" waitingTime="0.00" waitingCount="0" stopTime="0.00" timeLoss="27.10" rerouteNo="0" devices="tripinfo_N2S_36" vType="ego_car" speedFactor="1.02" vaporized=""/>
    <tripinfo id="W2E_38" depart="403.00" departLane="WE_0" departPos="5.00" departSpeed="10.00" departDelay="0.00" arrival="458.00" arrivalLane="-EW_0" arrivalPos="250.00" arrivalSpeed="20.00" duration="55.00" routeLength="509.40" waitingTime="18.00" waitingCount="1" stopTime="0.00" timeLoss="28.72" rerouteNo="0" devices="tripinfo_W2E_38" vType="ego_car" speedFactor="1.18" vaporized=""/>
    <tripinfo id="E2W_39" depart="420.00" departLane="EW_0" departPos="5.00" departSpeed="10.00" departDelay="0.00" arrival="458.00" arrivalLane="-WE_0" arrivalPos="250.00" arrivalSpeed="20.00" duration="38.00" routeLength="509.40" waitingTime="4.00" waitingCount="1" stopTime="0.00" timeLoss="11.77" rerouteNo="0" devices="tripinfo_E2W_39" vType="ego_car" speedFactor="1.10" vaporized=""/>
    <tripinfo id="E2W_40" depart="422.00" departLane="EW_0" departPos="5.00" departSpeed="10.00" departDelay="0.00" arrival="462.00" arrivalLane="-WE_0" arrivalPos="250.00" arrivalSpeed="18.01" duration="40.00" routeLength="509.40" waitingTime="0.00" waitingCount="0" stopTime="0.00" timeLoss="11.15" rerouteNo="0" devices="tripinfo_E2W_40" vType="ego_car" speedFactor="0.90" vaporized=""/>
    <tripinfo id="W2E_43" depart="427.00" departLane="WE_0" departPos="5.00" departSpeed="10.00" departDelay="0.00" arrival="462.00" arrivalLane="-EW_0" arrivalPos="250.00" arrivalSpeed="20.00" duration="35.00" routeLength="509.40" waitingTime="0.00" waitingCount="0" stopTime="0.00" timeLoss="8.83" rerouteNo="0" devices="tripinfo_W2E_43" vType="ego_car" speedFactor="1.09" vaporized=""/>
    <tripinfo id="E2W_42" depart="427.00" departLane="EW_0" departPos="5.00" departSpeed="10.00" departDelay="0.00" arrival="465.00" arrivalLane="-WE_0" arrivalPos="250.00" arrivalSpeed="19.14" duration="38.00" routeLength="509.40" waitingTime="0.00" waitingCount="0" stopTime="0.00" timeLoss="10.93" rerouteNo="0" devices="tripinfo_E2W_42" vType="ego_car" speedFactor="0.96" vaporized=""/>
    <tripinfo id="W2E_44" depart="429.00" departLane="WE_0" departPos="5.00" departSpeed="10.00" departDelay="2.00" arrival="465.00" arrivalLane="-EW_0" arrivalPos="250.00" arrivalSpeed="20.00" duration="36.00" routeLength="509.40" waitingTime="0.00" waitingCount="0" stopTime="0.00" timeLoss="9.92" rerouteNo="0" devices="tripinfo_W2E_44" vType="ego_car" speedFactor="1.04" vaporized=""/>
    <tripinfo id="W2E_45" depart="433.00" departLane="WE_0" departPos="5.00" departSpeed="10.00" departDelay="6.00" arrival="468.00" arrivalLane="-EW_0" arrivalPos="250.00" arrivalSpeed="20.00" duration="35.00" routeLength="509.40" waitingTime="0.00" waitingCount="0" stopTime="0.00" timeLoss="9.09" rerouteNo="0" devices="tripinfo_W2E_45" vType="ego_car" speedFactor="1.04" vaporized=""/>
    <tripinfo id="W2E_46" depart="435.00" departLane="WE_0" departPos="5.00" departSpeed="10.00" departDelay="6.00" arrival="471.00" arrivalLane="-EW_0" arrivalPos="250.00" arrivalSpeed="20.00" duration="36.00" routeLength="509.40" waitingTime="0.00" waitingCount="0" stopTime="0.00" timeLoss="10.06" rerouteNo="0" devices="tripinfo_W2E_46" vType="ego_car" speedFactor="1.09" vaporized=""/>
    <tripinfo id="E2W_53" depart="442.00" departLane="EW_0" departPos="5.00" departSpeed="10.00" departDelay="0.00" arrival="471.00" arrivalLane="-WE_0" arrivalPos="250.00" arrivalSpeed="20.00" duration="29.00" routeLength="509.40" waitingTime="0.00" waitingCount="0" stopTime="0.00" timeLoss="3.10" rerouteNo="0" devices="tripinfo_E2W_53" vType="ego_car" speedFactor="1.02" vaporized=""/>
    <tripinfo id="W2E_47" depart="438.00" departLane="WE_0" departPos="5.00" departSpeed="10.00" departDelay="8.00" arrival="474.00" arrivalLane="-EW_0" arrivalPos="250.00" arrivalSpeed="19.95" duration="36.00" routeLength="509.40" waitingTime="0.00" waitingCount="0" stopTime="0.00" timeLoss="9.98" rerouteNo="0" devices="tripinfo_W2E_47" vType="ego_car" speedFactor="1.00" vaporized=""/>
    <tripinfo id="E2W_55" depart="445.00" departLane="EW_0" departPos="5.00" departSpeed="10.00" departDelay="0.00" arrival="474.00" arrivalLane="-WE_0" arrivalPos="250.00" arrivalSpeed="20.00" duration="29.00" routeLength="509.40" waitingTime="0.00" waitingCount="0" stopTime="0.00" timeLoss="3.36" rerouteNo="0" devices="tripinfo_E2W_55" vType="ego_car" speedFactor="1.00" vaporized=""/>
    <tripinfo id="W2E_48" depart="440.00" departLane="WE_0" departPos="5.00" departSpeed="10.00" departDelay="10.00" arrival="478.00" arrivalLane="-EW_0" arrivalPos="250.00" arrivalSpeed="18.01" duration="38.00" routeLength="509.40" waitingTime="0.00" waitingCount="0" stopTime="0.00" timeLoss="9.29" rerouteNo="0" devices="tripinfo_W2E_48" vType="ego_car" speedFactor="0.90" vaporized=""/>
    <tripinfo id="W2E_49" depart="443.00" departLane="WE_0" departPos="5.00" departSpeed="10.00" departDelay="11.00" arrival="483.00" arrivalLane="-EW_0" arrivalPos="250.00" arrivalSpeed="17.54" duration="40.00" routeLength="509.40" waitingTime="0.00" waitingCount="0" stopTime="0.00" timeLoss="10.03" rerouteNo="0" devices="tripinfo_W2E_49" vType="ego_car" speedFactor="0.88" vaporized=""/>
    <tripinfo id="E2W_59" depart="453.00" departLane="EW_0" departPos="5.00" departSpeed="10.00" departDelay="0.00" arrival="485.00" arrivalLane="-WE_0" arrivalPos="250.00" arrivalSpeed="20.00" duration="32.00" routeLength="509.40" waitingTime="0.00" waitingCount="0" stopTime="0.00" timeLoss="6.35" rerouteNo="0" devices="tripinfo_E2W_59" vType="ego_car" speedFactor="1.02" vaporized=""/>
    <tripinfo id="W2E_50" depart="445.00" departLane="WE_0" departPos="5.00" departSpeed="10.00" departDelay="11.00" arrival="487.00" arrivalLane="-EW_0" arrivalPos="250.00" arrivalSpeed="17.01" duration="42.00" routeLength="509.40" waitingTime="0.00" waitingCount="0" stopTime="0.00" timeLoss="11.96" rerouteNo="0" devices="tripinfo_W2E_50" vType="ego_car" speedFactor="0.85" vaporized=""/>
    <tripinfo id="N2S_41" depart="422.00" departLane="NS_0" departPos="5.00" departSpeed="10.00" departDelay="0.00" arrival="492.00" arrivalLane="-SN_0" arrivalPos="250.00" arrivalSpeed="20.00" duration="70.00" routeLength="509.40" waitingTime="29.00" waitingCount="1" stopTime="0.00" timeLoss="43.76" rerouteNo="0" devices="tripinfo_N2S_41" vType="ego_car" speedFactor="1.03" vaporized=""/>
    <tripinfo id="N2S_54" depart="442.00" departLane="NS_0" departPos="5.00" departSpeed="10.00" departDelay="0.00" arrival="495.00" arrivalLane="-SN_0" arrivalPos="250.00" arrivalSpeed="20.00" duration="53.00" routeLength="509.40" waitingTime="0.00" waitingCount="0" stopTime="0.00" timeLoss="27.09" rerouteNo="0" devices="tripinfo_N2S_54" vType="ego_car" speedFactor="1.10" vaporized=""/>
    <tripinfo id="S2N_51" depart="437.00" departLane="SN_0" departPos="5.00" departSpeed="10.00" departDelay="0.00" arrival="496.00" arrivalLane="-NS_0" arrivalPos="250.00" arrivalSpeed="17.10" duration="59.00" routeLength="509.40" waitingTime="0.00" waitingCount="0" stopTime="0.00" timeLoss="28.71" rerouteNo="0" devices="tripinfo_S2N_51" vType="ego_car" speedFactor="0.85" vaporized=""/>
    <tripinfo id="S2N_56" depart="446.00" departLane="SN_0" departPos="5.00" departSpeed="10.00" departDelay="0.00" arrival="499.00" arrivalLane="-NS_0" arrivalPos="250.00" arrivalSpeed="19.92" duration="53.00" routeLength="509.40" waitingTime="0.00" waitingCount="0" stopTime="0.00" timeLoss="26.90" rerouteNo="0" devices="tripinfo_S2N_56" vType="ego_car" speedFactor="1.00" vaporized=""/>
    <tripinfo id="S2N_57" depart="453.00" departLane="SN_0" departPos="5.00" departSpeed="10.00" departDelay="3.00" arrival="503.00" arrivalLane="-NS_0" arrivalPos="250.00" arrivalSpeed="17.98" duration="50.00" routeLength="509.40" waitingTime="0.00" waitingCount="0" stopTime="0.00" timeLoss="21.52" rerouteNo="0" devices="tripinfo_S2N_57" vType="ego_car" speedFactor="0.90" vaporized=""/>
    <tripinfo id="S2N_58" depart="464.00" departLane="SN_0" departPos="5.00" departSpeed="10.00" departDelay="14.00" arrival="505.00" arrivalLane="-NS_0" arrivalPos="250.00" arrivalSpeed="20.00" duration="41.00" routeLength="509.40" waitingTime="0.00" waitingCount="0" stopTime="0.00" timeLoss="15.36" rerouteNo="0" devices="tripinfo_S2N_58" vType="ego_car" speedFactor="1.14" vaporized=""/>
    <tripinfo id="W2E_52" depart="449.00" departLane="WE_0" departPos="5.00" departSpeed="10.00" departDelay="12.00" arrival="526.00" arrivalLane="-EW_0" arrivalPos="250.00" arrivalSpeed="20.00" duration="77.00" routeLength="509.40" waitingTime="33.00" waitingCount="1" stopTime="0.00" timeLoss="50.81" rerouteNo="0" devices="tripinfo_W2E_52" vType="ego_car" speedFactor="1.17" vaporized=""/>
    <tripinfo id="E2W_60" depart="470.00" departLane="EW_0" departPos="5.00" departSpeed="10.00" departDelay="0.00" arrival="526.00" arrivalLane="-WE_0" arrivalPos="250.00" arrivalSpeed="19.39" duration="56.00" routeLength="509.40" waitingTime="2.00" waitingCount="1" stopTime="0.00" timeLoss="29.29" rerouteNo="0" devices="tripinfo_E2W_60" vType="ego_car" speedFactor="0.97" vaporized=""/>
    <tripinfo id="E2W_61" depart="486.00" departLane="EW_0" departPos="5.00" departSpeed="10.00" departDelay="0.00" arrival="529.00" arrivalLane="-WE_0" arrivalPos="250.00" arrivalSpeed="20.00" duration="43.00" routeLength="509.40" waitingTime="0.00" waitingCount="0" stopTime="0.00" timeLoss="17.53" rerouteNo="0" devices="tripinfo_E2W_61" vType="ego_car" speedFactor="1.08" vaporized=""/>
    <tripinfo id="E2W_64" depart="504.00" departLane="EW_0" departPos="5.00" departSpeed="10.00" departDelay="0.00" arrival="533.00" arrivalLane="-WE_0" arrivalPos="250.00" arrivalSpeed="19.74" duration="29.00" routeLength="509.40" waitingTime="0.00" waitingCount="0" stopTime="0.00" timeLoss="2.61" rerouteNo="0" devices="tripinfo_E2W_64" vType="ego_car" speedFactor="0.99" vaporized=""/>
    <tripinfo id="E2W_65" depart="509.00" departLane="EW_0" departPos="5.00" departSpeed="10.00" departDelay="0.00" arrival="538.00" arrivalLane="-WE_0" arrivalPos="250.00" arrivalSpeed="18.75" duration="29.00" routeLength="509.40" waitingTime="0.00" waitingCount="0" stopTime="0.00" timeLoss="1.60" rerouteNo="0" devices="tripinfo_E2W_65" vType="ego_car" speedFactor="0.94" vaporized=""/>
    <tripinfo id="W2E_66" depart="515.00" departLane="WE_0" departPos="5.00" departSpeed="10.00" departDelay="0.00" arrival="546.00" arrivalLane="-EW_0" arrivalPos="250.00" arrivalSpeed="17.65" duration="31.00" routeLength="509.40" waitingTime="0.00" waitingCount="0" stopTime="0.00" timeLoss="2.11" rerouteNo="0" devices="tripinfo_W2E_66" vType="ego_car" speedFactor="0.88" vaporized=""/>
    <tripinfo id="S2N_62" depart="493.00" departLane="SN_0" departPos="5.00" departSpeed="10.00" departDelay="0.00" arrival="560.00" arrivalLane="-NS_0" arrivalPos="250.00" arrivalSpeed="20.00" duration="67.00" routeLength="509.40" waitingTime="22.00" waitingCount="1" stopTime="0.00" timeLoss="40.71" rerouteNo="0" devices="tripinfo_S2N_62" vType="ego_car" speedFactor="1.12" vaporized=""/>
    <tripinfo id="N2S_63" depart="500.00" departLane="NS_0" departPos="5.00" departSpeed="10.00" departDelay="0.00" arrival="560.00" arrivalLane="-SN_0" arrivalPos="250.00" arrivalSpeed="20.00" duration="60.00" routeLength="509.40" waitingTime="12.00" waitingCount="1" stopTime="0.00" timeLoss="33.66" rerouteNo="0" devices="tripinfo_N2S_63" vType="ego_car" speedFactor="1.02" vaporized=""/>
    <tripinfo id="N2S_69" depart="526.00" departLane="NS_0" departPos="5.00" departSpeed="10.00" departDelay="0.00" arrival="564.00" arrivalLane="-SN_0" arrivalPos="250.00" arrivalSpeed="20.00" duration="38.00" routeLength="509.40" waitingTime="0.00" waitingCount="0" stopTime="0.00" timeLoss="11.86" rerouteNo="0" devices="tripinfo_N2S_69" vType="ego_car" speedFactor="1.04" vaporized=""/>
    <tripinfo id="N2S_72" depart="538.00" departLane="NS_0" departPos="5.00" departSpeed="10.00" departDelay="0.00" arrival="567.00" arrivalLane="-SN_0" arrivalPos="250.00" arrivalSpeed="19.46" duration="29.00" routeLength="509.40" waitingTime="0.00" waitingCount="0" stopTime="0.00" timeLoss="2.41" rerouteNo="0" devices="tripinfo_N2S_72" vType="ego_car" speedFactor="0.97" vaporized=""/>
    <tripinfo id="S2N_73" depart="541.00" departLane="SN_0" departPos="5.00" departSpeed="10.00" departDelay="0.00" arrival="575.00" arrivalLane="-NS_0" arrivalPos="250.00" arrivalSpeed="18.80" duration="34.00" routeLength="509.40" waitingTime="0.00" waitingCount="0" stopTime="0.00" timeLoss="6.72" rerouteNo="0" devices="tripinfo_S2N_73" vType="ego_car" speedFactor="0.94" vaporized=""/>
    <tripinfo id="E2W_71" depart="535.00" departLane="EW_0" departPos="5.00" departSpeed="10.00" departDelay="0.00" arrival="594.00" arrivalLane="-WE_0" arrivalPos="250.00" arrivalSpeed="20.00" duration="59.00" routeLength="509.40" waitingTime="13.00" waitingCount="2" stopTime="0.00" timeLoss="32.67" rerouteNo="0" devices="tripinfo_E2W_71" vType="ego_car" speedFactor="1.02" vaporized=""/>
    <tripinfo id="W2E_67" depart="523.00" departLane="WE_0" departPos="5.00" departSpeed="10.00" departDelay="0.00" arrival="595.00" arrivalLane="-EW_0" arrivalPos="250.00" arrivalSpeed="18.14" duration="72.00" routeLength="509.40" waitingTime="34.00" waitingCount="2" stopTime="0.00" timeLoss="43.16" rerouteNo="0" devices="tripinfo_W2E_67" vType="ego_car" speedFactor="0.91" vaporized=""/>
    <tripinfo id="E2W_80" depart="566.00" departLane="EW_0" departPos="5.00" departSpeed="10.00" departDelay="0.00" arrival="597.00" arrivalLane="-WE_0" arrivalPos="250.00" arrivalSpeed="20.00" duration="31.00" routeLength="509.40" waitingTime="0.00" waitingCount="0" stopTime="0.00" timeLoss="5.45" rerouteNo="0" devices="tripinfo_E2W_80" vType="ego_car" speedFactor="1.09" vaporized=""/>
    <tripinfo id="W2E_68" depart="525.00" departLane="WE_0" departPos="5.00" departSpeed="10.00" departDelay="1.00" arrival="598.00" arrivalLane="-EW_0" arrivalPos="250.00" arrivalSpeed="18.29" duration="73.00" routeLength="509.40" waitingTime="31.00" waitingCount="1" stopTime="0.00" timeLoss="44.40" rerouteNo="0" devices="tripinfo_W2E_68" vType="ego_car" speedFactor="0.91" vaporized=""/>