<?xml version="1.0" encoding="UTF-8"?>

<!-- generated on 2023-05-10 22:58:47 by Eclipse SUMO GUI Version v1_16_0+0802-cb0bb8ac9af
<configuration xmlns:xsi="http://www.w3.org/2001/XMLSchema-instance" xsi:noNamespaceSchemaLocation="http://sumo.dlr.de/xsd/sumoConfiguration.xsd">

    <input>
        <net-file value="/home/yuwz/graduation_design/DDPG5/single_test/intersection.net.xml"/>
        <route-files value="/home/yuwz/graduation_design/DDPG5/single_test/intersection1.rou.xml"/>
    </input>

    <output>
        <tripinfo-output value="/home/yuwz/graduation_design/DDPG5/single_test/tripinfo.xml"/>
    </output>

    <time>
        <begin value="0"/>
        <end value="3600"/>
        <step-length value="1"/>
    </time>

    <processing>
        <waiting-time-memory value="2000"/>
    </processing>

    <report>
        <no-step-log value="true"/>
    </report>

    <traci_server>
        <remote-port value="35063"/>
    </traci_server>

</configuration>
-->

<tripinfos xmlns:xsi="http://www.w3.org/2001/XMLSchema-instance" xsi:noNamespaceSchemaLocation="http://sumo.dlr.de/xsd/tripinfo_file.xsd">
    <tripinfo id="W2E_1" depart="89.00" departLane="WE0_0" departPos="5.00" departSpeed="10.00" departDelay="0.00" arrival="440.00" arrivalLane="WE1_0" arrivalPos="892.80" arrivalSpeed="20.00" duration="351.00" routeLength="1780.60" waitingTime="301.00" waitingCount="1" stopTime="0.00" timeLoss="304.98" rerouteNo="0" devices="tripinfo_W2E_1 battery_W2E_1" vType="ego_car" speedFactor="1.06" vaporized=""/>
    <tripinfo id="E2W_2" depart="100.00" departLane="EW0_0" departPos="5.00" departSpeed="10.00" departDelay="0.00" arrival="455.00" arrivalLane="EW1_0" arrivalPos="892.80" arrivalSpeed="18.77" duration="355.00" routeLength="1780.60" waitingTime="301.00" waitingCount="1" stopTime="0.00" timeLoss="305.54" rerouteNo="0" devices="tripinfo_E2W_2 battery_E2W_2" vType="ego_car" speedFactor="0.94" vaporized=""/>
    <tripinfo id="W2E_4" depart="395.00" departLane="WE0_0" departPos="5.00" departSpeed="10.00" departDelay="222.00" arrival="746.00" arrivalLane="WE1_0" arrivalPos="892.80" arrivalSpeed="20.00" duration="351.00" routeLength="1780.60" waitingTime="301.00" waitingCount="1" stopTime="0.00" timeLoss="304.95" rerouteNo="0" devices="tripinfo_W2E_4 battery_W2E_4" vType="ego_car" speedFactor="1.08" vaporized=""/>
    <tripinfo id="E2W_3" depart="407.00" departLane="EW0_0" departPos="5.00" departSpeed="10.00" departDelay="252.00" arrival="758.00" arrivalLane="EW1_0" arrivalPos="892.80" arrivalSpeed="20.00" duration="351.00" routeLength="1780.60" waitingTime="301.00" waitingCount="1" stopTime="0.00" timeLoss="304.91" rerouteNo="0" devices="tripinfo_E2W_3 battery_E2W_3" vType="ego_car" speedFactor="1.01" vaporized=""/>
    <tripinfo id="W2E_5" depart="701.00" departLane="WE0_0" departPos="5.00" departSpeed="10.00" departDelay="508.00" arrival="1051.00" arrivalLane="WE1_0" arrivalPos="892.80" arrivalSpeed="20.00" duration="350.00" routeLength="1780.60" waitingTime="301.00" waitingCount="1" stopTime="0.00" timeLoss="304.00" rerouteNo="0" devices="tripinfo_W2E_5 battery_W2E_5" vType="ego_car" speedFactor="1.03" vaporized=""/>
    <tripinfo id="E2W_6" depart="713.00" departLane="EW0_0" departPos="5.00" departSpeed="10.00" departDelay="499.00" arrival="1074.00" arrivalLane="EW1_0" arrivalPos="892.80" arrivalSpeed="16.62" duration="361.00" routeLength="1780.60" waitingTime="301.00" waitingCount="1" stopTime="0.00" timeLoss="305.19" rerouteNo="0" devices="tripinfo_E2W_6 battery_E2W_6" vType="ego_car" speedFactor="0.83" vaporized=""/>
    <tripinfo id="E2W_8" depart="717.00" departLane="EW0_0" departPos="5.00" departSpeed="10.00" departDelay="484.00" arrival="1075.00" arrivalLane="EW1_0" arrivalPos="892.80" arrivalSpeed="17.72" duration="358.00" routeLength="1780.60" waitingTime="301.00" waitingCount="1" stopTime="0.00" timeLoss="306.26" rerouteNo="0" devices="tripinfo_E2W_8 battery_E2W_8" vType="ego_car" speedFactor="0.89" vaporized=""/>
    <tripinfo id="W2E_7" depart="1006.00" departLane="WE0_0" departPos="5.00" departSpeed="10.00" departDelay="782.00" arrival="1356.00" arrivalLane="WE1_0" arrivalPos="892.80" arrivalSpeed="20.00" duration="350.00" routeLength="1780.60" waitingTime="301.00" waitingCount="1" stopTime="0.00" timeLoss="304.00" rerouteNo="0" devices="tripinfo_W2E_7 battery_W2E_7" vType="ego_car" speedFactor="1.05" vaporized=""/>
    <tripinfo id="E2W_9" depart="1023.00" departLane="EW0_0" departPos="5.00" departSpeed="10.00" departDelay="778.00" arrival="1379.00" arrivalLane="EW1_0" arrivalPos="892.80" arrivalSpeed="18.76" duration="356.00" routeLength="1780.60" waitingTime="301.00" waitingCount="1" stopTime="0.00" timeLoss="305.85" rerouteNo="0" devices="tripinfo_E2W_9 battery_E2W_9" vType="ego_car" speedFactor="0.94" vaporized=""/>
    <tripinfo id="E2W_12" depart="1026.00" departLane="EW0_0" departPos="5.00" departSpeed="10.00" departDelay="750.00" arrival="1380.00" arrivalLane="EW1_0" arrivalPos="892.80" arrivalSpeed="20.00" duration="354.00" routeLength="1780.60" waitingTime="301.00" waitingCount="1" stopTime="0.00" timeLoss="307.79" rerouteNo="0" devices="tripinfo_E2W_12 battery_E2W_12" vType="ego_car" speedFactor="1.03" vaporized=""/>
    <tripinfo id="E2W_18" depart="1031.00" departLane="EW0_0" departPos="5.00" departSpeed="10.00" departDelay="691.00" arrival="1385.00" arrivalLane="EW1_0" arrivalPos="892.80" arrivalSpeed="18.83" duration="354.00" routeLength="1780.60" waitingTime="301.00" waitingCount="1" stopTime="0.00" timeLoss="304.80" rerouteNo="0" devices="tripinfo_E2W_18 battery_E2W_18" vType="ego_car" speedFactor="0.94" vaporized=""/>
    <tripinfo id="W2E_10" depart="1311.00" departLane="WE0_0" departPos="5.00" departSpeed="10.00" departDelay="1053.00" arrival="1669.00" arrivalLane="WE1_0" arrivalPos="892.80" arrivalSpeed="17.14" duration="358.00" routeLength="1780.60" waitingTime="301.00" waitingCount="1" stopTime="0.00" timeLoss="304.70" rerouteNo="0" devices="tripinfo_W2E_10 battery_W2E_10" vType="ego_car" speedFactor="0.86" vaporized=""/>
    <tripinfo id="E2W_20" depart="1337.00" departLane="EW0_0" departPos="5.00" departSpeed="10.00" departDelay="968.00" arrival="1689.00" arrivalLane="EW1_0" arrivalPos="892.80" arrivalSpeed="20.00" duration="352.00" routeLength="1780.60" waitingTime="301.00" waitingCount="1" stopTime="0.00" timeLoss="305.49" rerouteNo="0" devices="tripinfo_E2W_20 battery_E2W_20" vType="ego_car" speedFactor="1.16" vaporized=""/>
    <tripinfo id="E2W_21" depart="1341.00" departLane="EW0_0" departPos="5.00" departSpeed="10.00" departDelay="966.00" arrival="1692.00" arrivalLane="EW1_0" arrivalPos="892.80" arrivalSpeed="20.00" duration="351.00" routeLength="1780.60" waitingTime="301.00" waitingCount="1" stopTime="0.00" timeLoss="304.93" rerouteNo="0" devices="tripinfo_E2W_21 battery_E2W_21" vType="ego_car" speedFactor="1.02" vaporized=""/>
    <tripinfo id="W2E_11" depart="1617.00" departLane="WE0_0" departPos="5.00" departSpeed="10.00" departDelay="1355.00" arrival="1968.00" arrivalLane="WE1_0" arrivalPos="892.80" arrivalSpeed="20.00" duration="351.00" routeLength="1780.60" waitingTime="301.00" waitingCount="1" stopTime="0.00" timeLoss="304.97" rerouteNo="0" devices="tripinfo_W2E_11 battery_W2E_11" vType="ego_car" speedFactor="1.09" vaporized=""/>
    <tripinfo id="E2W_24" depart="1647.00" departLane="EW0_0" departPos="5.00" departSpeed="10.00" departDelay="1237.00" arrival="2005.00" arrivalLane="EW1_0" arrivalPos="892.80" arrivalSpeed="17.79" duration="358.00" routeLength="1780.60" waitingTime="301.00" waitingCount="1" stopTime="0.00" timeLoss="306.02" rerouteNo="0" devices="tripinfo_E2W_24 battery_E2W_24" vType="ego_car" speedFactor="0.89" vaporized=""/>
    <tripinfo id="E2W_25" depart="1651.00" departLane="EW0_0" departPos="5.00" departSpeed="10.00" departDelay="1235.00" arrival="2011.00" arrivalLane="EW1_0" arrivalPos="892.80" arrivalSpeed="16.51" duration="360.00" routeLength="1780.60" waitingTime="301.00" waitingCount="1" stopTime="0.00" timeLoss="304.59" rerouteNo="0" devices="tripinfo_E2W_25 battery_E2W_25" vType="ego_car" speedFactor="0.83" vaporized=""/>
    <tripinfo id="W2E_13" depart="1923.00" departLane="WE0_0" departPos="5.00" departSpeed="10.00" departDelay="1629.00" arrival="2275.00" arrivalLane="WE1_0" arrivalPos="892.80" arrivalSpeed="20.00" duration="352.00" routeLength="1780.60" waitingTime="301.00" waitingCount="1" stopTime="0.00" timeLoss="305.66" rerouteNo="0" devices="tripinfo_W2E_13 battery_W2E_13" vType="ego_car" speedFactor="1.05" vaporized=""/>
    <tripinfo id="E2W_28" depart="1957.00" departLane="EW0_0" departPos="5.00" departSpeed="10.00" departDelay="1528.00" arrival="2309.00" arrivalLane="EW1_0" arrivalPos="892.80" arrivalSpeed="18.98" duration="352.00" routeLength="1780.60" waitingTime="301.00" waitingCount="1" stopTime="0.00" timeLoss="303.95" rerouteNo="0" devices="tripinfo_E2W_28 battery_E2W_28" vType="ego_car" speedFactor="0.95" vaporized=""/>
    <tripinfo id="W2E_14" depart="2230.00" departLane="WE0_0" departPos="5.00" departSpeed="10.00" departDelay="1922.00" arrival="2581.00" arrivalLane="WE1_0" arrivalPos="892.80" arrivalSpeed="20.00" duration="351.00" routeLength="1780.60" waitingTime="301.00" waitingCount="1" stopTime="0.00" timeLoss="304.79" rerouteNo="0" devices="tripinfo_W2E_14 battery_W2E_14" vType="ego_car" speedFactor="1.12" vaporized=""/>
    <tripinfo id="E2W_30" depart="2262.00" departLane="EW0_0" departPos="5.00" departSpeed="10.00" departDelay="1800.00" arrival="2615.00" arrivalLane="EW1_0" arrivalPos="892.80" arrivalSpeed="18.63" duration="353.00" routeLength="1780.60" waitingTime="301.00" waitingCount="1" stopTime="0.00" timeLoss="303.93" rerouteNo="0" devices="tripinfo_E2W_30 battery_E2W_30" vType="ego_car" speedFactor="0.93" vaporized=""/>
    <tripinfo id="W2E_15" depart="2536.00" departLane="WE0_0" departPos="5.00" departSpeed="10.00" departDelay="2225.00" arrival="2887.00" arrivalLane="WE1_0" arrivalPos="892.80" arrivalSpeed="19.82" duration="351.00" routeLength="1780.60" waitingTime="301.00" waitingCount="1" stopTime="0.00" timeLoss="304.91" rerouteNo="0" devices="tripinfo_W2E_15 battery_W2E_15" vType="ego_car" speedFactor="0.99" vaporized=""/>
    <tripinfo id="E2W_33" depart="2567.00" departLane="EW0_0" departPos="5.00" departSpeed="10.00" departDelay="2092.00" arrival="2918.00" arrivalLane="EW1_0" arrivalPos="892.80" arrivalSpeed="20.00" duration="351.00" routeLength="1780.60" waitingTime="301.00" waitingCount="1" stopTime="0.00" timeLoss="304.60" rerouteNo="0" devices="tripinfo_E2W_33 battery_E2W_33" vType="ego_car" speedFactor="1.01" vaporized=""/>
    <tripinfo id="E2W_36" depart="2572.00" departLane="EW0_0" departPos="5.00" departSpeed="10.00" departDelay="2069.00" arrival="2922.00" arrivalLane="EW1_0" arrivalPos="892.80" arrivalSpeed="20.00" duration="350.00" routeLength="1780.60" waitingTime="301.00" waitingCount="1" stopTime="0.00" timeLoss="304.00" rerouteNo="0" devices="tripinfo_E2W_36 battery_E2W_36" vType="ego_car" speedFactor="1.02" vaporized=""/>
    <tripinfo id="W2E_16" depart="2842.00" departLane="WE0_0" departPos="5.00" departSpeed="10.00" departDelay="2509.00" arrival="3197.00" arrivalLane="WE1_0" arrivalPos="892.80" arrivalSpeed="18.54" duration="355.00" routeLength="1780.60" waitingTime="301.00" waitingCount="1" stopTime="0.00" timeLoss="305.68" rerouteNo="0" devices="tripinfo_W2E_16 battery_W2E_16" vType="ego_car" speedFactor="0.93" vaporized=""/>
    <tripinfo id="E2W_38" depart="2877.00" departLane="EW0_0" departPos="5.00" departSpeed="10.00" departDelay="2352.00" arrival="3228.00" arrivalLane="EW1_0" arrivalPos="892.80" arrivalSpeed="20.00" duration="351.00" routeLength="1780.60" waitingTime="301.00" waitingCount="1" stopTime="0.00" timeLoss="305.00" rerouteNo="0" devices="tripinfo_E2W_38 battery_E2W_38" vType="ego_car" speedFactor="1.18" vaporized=""/>
    <tripinfo id="W2E_17" depart="3149.00" departLane="WE0_0" departPos="5.00" departSpeed="10.00" departDelay="2815.00" arrival="3506.00" arrivalLane="WE1_0" arrivalPos="892.80" arrivalSpeed="17.57" duration="357.00" routeLength="1780.60" waitingTime="301.00" waitingCount="1" stopTime="0.00" timeLoss="304.75" rerouteNo="0" devices="tripinfo_W2E_17 battery_W2E_17" vType="ego_car" speedFactor="0.88" vaporized=""/>
    <tripinfo id="E2W_42" depart="3183.00" departLane="EW0_0" departPos="5.00" departSpeed="10.00" departDelay="2638.00" arrival="3536.00" arrivalLane="EW1_0" arrivalPos="892.80" arrivalSpeed="19.14" duration="353.00" routeLength="1780.60" waitingTime="301.00" waitingCount="1" stopTime="0.00" timeLoss="304.82" rerouteNo="0" devices="tripinfo_E2W_42 battery_E2W_42" vType="ego_car" speedFactor="0.96" vaporized=""/>
    <tripinfo id="W2E_19" depart="3455.00" departLane="WE0_0" departPos="5.00" departSpeed="10.00" departDelay="3090.00" arrival="3811.00" arrivalLane="WE1_0" arrivalPos="892.80" arrivalSpeed="18.72" duration="356.00" routeLength="1780.60" waitingTime="301.00" waitingCount="1" stopTime="0.00" timeLoss="306.19" rerouteNo="0" devices="tripinfo_W2E_19 battery_W2E_19" vType="ego_car" speedFactor="0.94" vaporized=""/>
    <tripinfo id="W2E_22" depart="3459.00" departLane="WE0_0" departPos="5.00" departSpeed="10.00" departDelay="3074.00" arrival="3812.00" arrivalLane="WE1_0" arrivalPos="892.80" arrivalSpeed="20.00" duration="353.00" routeLength="1780.60" waitingTime="301.00" waitingCount="1" stopTime="0.00" timeLoss="306.94" rerouteNo="0" devices="tripinfo_W2E_22 battery_W2E_22" vType="ego_car" speedFactor="1.01" vaporized=""/>
    <tripinfo id="E2W_43" depart="3489.00" departLane="EW0_0" departPos="5.00" departSpeed="10.00" departDelay="2944.00" arrival="3839.00" arrivalLane="EW1_0" arrivalPos="892.80" arrivalSpeed="20.00" duration="350.00" routeLength="1780.60" waitingTime="301.00" waitingCount="1" stopTime="0.00" timeLoss="304.00" rerouteNo="0" devices="tripinfo_E2W_43 battery_E2W_43" vType="ego_car" speedFactor="1.09" vaporized=""/>
</tripinfos>
