<?xml version="1.0" encoding="UTF-8"?>

<!-- generated on 2023-04-06 10:35:17 by Eclipse SUMO sumo Version 1.13.0
<configuration xmlns:xsi="http://www.w3.org/2001/XMLSchema-instance" xsi:noNamespaceSchemaLocation="http://sumo.dlr.de/xsd/sumoConfiguration.xsd">

    <input>
        <net-file value="/home/yuwz/tmp/graduation_design/rou_net/intersection.net.xml"/>
        <route-files value="/home/yuwz/tmp/graduation_design/rou_net/intersection21.rou.xml"/>
    </input>

    <output>
        <tripinfo-output value="/home/yuwz/tmp/graduation_design/rou_net/tripinfo.xml"/>
    </output>

    <time>
        <begin value="0"/>
        <end value="3600"/>
        <step-length value="1"/>
    </time>

    <processing>
        <waiting-time-memory value="3600"/>
    </processing>

    <report>
        <no-step-log value="true"/>
    </report>

    <traci_server>
        <remote-port value="53641"/>
    </traci_server>

    <gui_only>
        <tracker-interval value="1"/>
    </gui_only>

</configuration>
-->

<tripinfos xmlns:xsi="http://www.w3.org/2001/XMLSchema-instance" xsi:noNamespaceSchemaLocation="http://sumo.dlr.de/xsd/tripinfo_file.xsd">
    <tripinfo id="N2S_1" depart="71.00" departLane="NS_0" departPos="5.00" departSpeed="10.00" departDelay="0.00" arrival="98.00" arrivalLane="-SN_0" arrivalPos="250.00" arrivalSpeed="20.00" duration="27.00" routeLength="509.40" waitingTime="0.00" waitingCount="0" stopTime="0.00" timeLoss="1.00" rerouteNo="0" devices="tripinfo_N2S_1" vType="ego_car" speedFactor="1.06" vaporized=""/>
    <tripinfo id="W2E_2" depart="93.00" departLane="WE_0" departPos="5.00" departSpeed="10.00" departDelay="0.00" arrival="121.00" arrivalLane="-EW_0" arrivalPos="250.00" arrivalSpeed="18.77" duration="28.00" routeLength="509.40" waitingTime="0.00" waitingCount="0" stopTime="0.00" timeLoss="0.84" rerouteNo="0" devices="tripinfo_W2E_2" vType="ego_car" speedFactor="0.94" vaporized=""/>
    <tripinfo id="N2S_3" depart="136.00" departLane="NS_0" departPos="5.00" departSpeed="10.00" departDelay="0.00" arrival="163.00" arrivalLane="-SN_0" arrivalPos="250.00" arrivalSpeed="20.00" duration="27.00" routeLength="509.40" waitingTime="0.00" waitingCount="0" stopTime="0.00" timeLoss="1.51" rerouteNo="0" devices="tripinfo_N2S_3" vType="ego_car" speedFactor="1.01" vaporized=""/>
    <tripinfo id="S2N_4" depart="143.00" departLane="SN_0" departPos="5.00" departSpeed="10.00" departDelay="0.00" arrival="170.00" arrivalLane="-NS_0" arrivalPos="250.00" arrivalSpeed="20.00" duration="27.00" routeLength="509.40" waitingTime="0.00" waitingCount="0" stopTime="0.00" timeLoss="1.23" rerouteNo="0" devices="tripinfo_S2N_4" vType="ego_car" speedFactor="1.08" vaporized=""/>
    <tripinfo id="W2E_5" depart="147.00" departLane="WE_0" departPos="5.00" departSpeed="10.00" departDelay="0.00" arrival="184.00" arrivalLane="-EW_0" arrivalPos="250.00" arrivalSpeed="20.00" duration="37.00" routeLength="509.40" waitingTime="0.00" waitingCount="0" stopTime="0.00" timeLoss="11.26" rerouteNo="0" devices="tripinfo_W2E_5" vType="ego_car" speedFactor="1.03" vaporized=""/>
    <tripinfo id="E2W_7" depart="170.00" departLane="EW_0" departPos="5.00" departSpeed="10.00" departDelay="0.00" arrival="197.00" arrivalLane="-WE_0" arrivalPos="250.00" arrivalSpeed="20.00" duration="27.00" routeLength="509.40" waitingTime="0.00" waitingCount="0" stopTime="0.00" timeLoss="1.33" rerouteNo="0" devices="tripinfo_E2W_7" vType="ego_car" speedFactor="1.05" vaporized=""/>
    <tripinfo id="W2E_8" depart="185.00" departLane="WE_0" departPos="5.00" departSpeed="10.00" departDelay="0.00" arrival="215.00" arrivalLane="-EW_0" arrivalPos="250.00" arrivalSpeed="17.72" duration="30.00" routeLength="509.40" waitingTime="0.00" waitingCount="0" stopTime="0.00" timeLoss="0.84" rerouteNo="0" devices="tripinfo_W2E_8" vType="ego_car" speedFactor="0.89" vaporized=""/>
    <tripinfo id="S2N_6" depart="152.00" departLane="SN_0" departPos="5.00" departSpeed="10.00" departDelay="0.00" arrival="222.00" arrivalLane="-NS_0" arrivalPos="250.00" arrivalSpeed="16.62" duration="70.00" routeLength="509.40" waitingTime="33.00" waitingCount="1" stopTime="0.00" timeLoss="38.91" rerouteNo="0" devices="tripinfo_S2N_6" vType="ego_car" speedFactor="0.83" vaporized=""/>
    <tripinfo id="S2N_10" depart="205.00" departLane="SN_0" departPos="5.00" departSpeed="10.00" departDelay="0.00" arrival="236.00" arrivalLane="-NS_0" arrivalPos="250.00" arrivalSpeed="17.14" duration="31.00" routeLength="509.40" waitingTime="0.00" waitingCount="0" stopTime="0.00" timeLoss="0.90" rerouteNo="0" devices="tripinfo_S2N_10" vType="ego_car" speedFactor="0.86" vaporized=""/>
    <tripinfo id="W2E_11" depart="211.00" departLane="WE_0" departPos="5.00" departSpeed="10.00" departDelay="0.00" arrival="254.00" arrivalLane="-EW_0" arrivalPos="250.00" arrivalSpeed="20.00" duration="43.00" routeLength="509.40" waitingTime="6.00" waitingCount="1" stopTime="0.00" timeLoss="17.00" rerouteNo="0" devices="tripinfo_W2E_11" vType="ego_car" speedFactor="1.09" vaporized=""/>
    <tripinfo id="E2W_9" depart="200.00" departLane="EW_0" departPos="5.00" departSpeed="10.00" departDelay="0.00" arrival="255.00" arrivalLane="-WE_0" arrivalPos="250.00" arrivalSpeed="18.76" duration="55.00" routeLength="509.40" waitingTime="6.00" waitingCount="1" stopTime="0.00" timeLoss="26.95" rerouteNo="0" devices="tripinfo_E2W_9" vType="ego_car" speedFactor="0.94" vaporized=""/>
    <tripinfo id="E2W_12" depart="218.00" departLane="EW_0" departPos="5.00" departSpeed="10.00" departDelay="0.00" arrival="257.00" arrivalLane="-WE_0" arrivalPos="250.00" arrivalSpeed="20.00" duration="39.00" routeLength="509.40" waitingTime="1.00" waitingCount="1" stopTime="0.00" timeLoss="12.61" rerouteNo="0" devices="tripinfo_E2W_12" vType="ego_car" speedFactor="1.03" vaporized=""/>
    <tripinfo id="E2W_13" depart="231.00" departLane="EW_0" departPos="5.00" departSpeed="10.00" departDelay="0.00" arrival="259.00" arrivalLane="-WE_0" arrivalPos="250.00" arrivalSpeed="20.00" duration="28.00" routeLength="509.40" waitingTime="0.00" waitingCount="0" stopTime="0.00" timeLoss="2.31" rerouteNo="0" devices="tripinfo_E2W_13" vType="ego_car" speedFactor="1.05" vaporized=""/>
    <tripinfo id="W2E_15" depart="238.00" departLane="WE_0" departPos="5.00" departSpeed="10.00" departDelay="0.00" arrival="265.00" arrivalLane="-EW_0" arrivalPos="250.00" arrivalSpeed="19.82" duration="27.00" routeLength="509.40" waitingTime="0.00" waitingCount="0" stopTime="0.00" timeLoss="1.29" rerouteNo="0" devices="tripinfo_W2E_15" vType="ego_car" speedFactor="0.99" vaporized=""/>
    <tripinfo id="W2E_16" depart="247.00" departLane="WE_0" departPos="5.00" departSpeed="10.00" departDelay="0.00" arrival="276.00" arrivalLane="-EW_0" arrivalPos="250.00" arrivalSpeed="18.54" duration="29.00" routeLength="509.40" waitingTime="0.00" waitingCount="0" stopTime="0.00" timeLoss="0.79" rerouteNo="0" devices="tripinfo_W2E_16" vType="ego_car" speedFactor="0.93" vaporized=""/>
    <tripinfo id="E2W_17" depart="248.00" departLane="EW_0" departPos="5.00" departSpeed="10.00" departDelay="0.00" arrival="278.00" arrivalLane="-WE_0" arrivalPos="250.00" arrivalSpeed="17.57" duration="30.00" routeLength="509.40" waitingTime="0.00" waitingCount="0" stopTime="0.00" timeLoss="0.61" rerouteNo="0" devices="tripinfo_E2W_17" vType="ego_car" speedFactor="0.88" vaporized=""/>
    <tripinfo id="W2E_19" depart="249.00" departLane="WE_0" departPos="5.00" departSpeed="10.00" departDelay="0.00" arrival="278.00" arrivalLane="-EW_0" arrivalPos="250.00" arrivalSpeed="18.72" duration="29.00" routeLength="509.40" waitingTime="0.00" waitingCount="0" stopTime="0.00" timeLoss="1.00" rerouteNo="0" devices="tripinfo_W2E_19" vType="ego_car" speedFactor="0.94" vaporized=""/>
    <tripinfo id="E2W_18" depart="250.00" departLane="EW_0" departPos="5.00" departSpeed="10.00" departDelay="1.00" arrival="280.00" arrivalLane="-WE_0" arrivalPos="250.00" arrivalSpeed="18.83" duration="30.00" routeLength="509.40" waitingTime="0.00" waitingCount="0" stopTime="0.00" timeLoss="2.30" rerouteNo="0" devices="tripinfo_E2W_18" vType="ego_car" speedFactor="0.94" vaporized=""/>
    <tripinfo id="W2E_20" depart="254.00" departLane="WE_0" departPos="5.00" departSpeed="10.00" departDelay="0.00" arrival="281.00" arrivalLane="-EW_0" arrivalPos="250.00" arrivalSpeed="20.00" duration="27.00" routeLength="509.40" waitingTime="0.00" waitingCount="0" stopTime="0.00" timeLoss="1.14" rerouteNo="0" devices="tripinfo_W2E_20" vType="ego_car" speedFactor="1.16" vaporized=""/>
    <tripinfo id="S2N_14" depart="237.00" departLane="SN_0" departPos="5.00" departSpeed="10.00" departDelay="0.00" arrival="288.00" arrivalLane="-NS_0" arrivalPos="250.00" arrivalSpeed="20.00" duration="51.00" routeLength="509.40" waitingTime="17.00" waitingCount="1" stopTime="0.00" timeLoss="25.28" rerouteNo="0" devices="tripinfo_S2N_14" vType="ego_car" speedFactor="1.12" vaporized=""/>
    <tripinfo id="S2N_21" depart="260.00" departLane="SN_0" departPos="5.00" departSpeed="10.00" departDelay="0.00" arrival="290.00" arrivalLane="-NS_0" arrivalPos="250.00" arrivalSpeed="20.00" duration="30.00" routeLength="509.40" waitingTime="0.00" waitingCount="0" stopTime="0.00" timeLoss="4.32" rerouteNo="0" devices="tripinfo_S2N_21" vType="ego_car" speedFactor="1.02" vaporized=""/>
    <tripinfo id="S2N_22" depart="266.00" departLane="SN_0" departPos="5.00" departSpeed="10.00" departDelay="0.00" arrival="294.00" arrivalLane="-NS_0" arrivalPos="250.00" arrivalSpeed="20.00" duration="28.00" routeLength="509.40" waitingTime="0.00" waitingCount="0" stopTime="0.00" timeLoss="1.98" rerouteNo="0" devices="tripinfo_S2N_22" vType="ego_car" speedFactor="1.01" vaporized=""/>
    <tripinfo id="N2S_26" depart="277.00" departLane="NS_0" departPos="5.00" departSpeed="10.00" departDelay="0.00" arrival="307.00" arrivalLane="-SN_0" arrivalPos="250.00" arrivalSpeed="17.45" duration="30.00" routeLength="509.40" waitingTime="0.00" waitingCount="0" stopTime="0.00" timeLoss="0.78" rerouteNo="0" devices="tripinfo_N2S_26" vType="ego_car" speedFactor="0.87" vaporized=""/>
    <tripinfo id="S2N_25" depart="276.00" departLane="SN_0" departPos="5.00" departSpeed="10.00" departDelay="0.00" arrival="308.00" arrivalLane="-NS_0" arrivalPos="250.00" arrivalSpeed="16.51" duration="32.00" routeLength="509.40" waitingTime="0.00" waitingCount="0" stopTime="0.00" timeLoss="0.65" rerouteNo="0" devices="tripinfo_S2N_25" vType="ego_car" speedFactor="0.83" vaporized=""/>
    <tripinfo id="S2N_27" depart="280.00" departLane="SN_0" departPos="5.00" departSpeed="10.00" departDelay="0.00" arrival="310.00" arrivalLane="-NS_0" arrivalPos="250.00" arrivalSpeed="18.34" duration="30.00" routeLength="509.40" waitingTime="0.00" waitingCount="0" stopTime="0.00" timeLoss="1.58" rerouteNo="0" devices="tripinfo_S2N_27" vType="ego_car" speedFactor="0.92" vaporized=""/>
    <tripinfo id="W2E_23" depart="270.00" departLane="WE_0" departPos="5.00" departSpeed="10.00" departDelay="0.00" arrival="321.00" arrivalLane="-EW_0" arrivalPos="250.00" arrivalSpeed="19.50" duration="51.00" routeLength="509.40" waitingTime="0.00" waitingCount="0" stopTime="0.00" timeLoss="24.12" rerouteNo="0" devices="tripinfo_W2E_23" vType="ego_car" speedFactor="0.97" vaporized=""/>
    <tripinfo id="W2E_24" depart="281.00" departLane="WE_0" departPos="5.00" departSpeed="10.00" departDelay="8.00" arrival="325.00" arrivalLane="-EW_0" arrivalPos="250.00" arrivalSpeed="17.79" duration="44.00" routeLength="509.40" waitingTime="0.00" waitingCount="0" stopTime="0.00" timeLoss="14.50" rerouteNo="0" devices="tripinfo_W2E_24" vType="ego_car" speedFactor="0.89" vaporized=""/>
    <tripinfo id="W2E_28" depart="287.00" departLane="WE_0" departPos="5.00" departSpeed="10.00" departDelay="5.00" arrival="326.00" arrivalLane="-EW_0" arrivalPos="250.00" arrivalSpeed="18.98" duration="39.00" routeLength="509.40" waitingTime="0.00" waitingCount="0" stopTime="0.00" timeLoss="12.10" rerouteNo="0" devices="tripinfo_W2E_28" vType="ego_car" speedFactor="0.95" vaporized=""/>
    <tripinfo id="W2E_29" depart="291.00" departLane="WE_0" departPos="5.00" departSpeed="10.00" departDelay="8.00" arrival="328.00" arrivalLane="-EW_0" arrivalPos="250.00" arrivalSpeed="20.00" duration="37.00" routeLength="509.40" waitingTime="0.00" waitingCount="0" stopTime="0.00" timeLoss="11.25" rerouteNo="0" devices="tripinfo_W2E_29" vType="ego_car" speedFactor="1.13" vaporized=""/>
    <tripinfo id="E2W_31" depart="304.00" departLane="EW_0" departPos="5.00" departSpeed="10.00" departDelay="0.00" arrival="331.00" arrivalLane="-WE_0" arrivalPos="250.00" arrivalSpeed="20.00" duration="27.00" routeLength="509.40" waitingTime="0.00" waitingCount="0" stopTime="0.00" timeLoss="1.21" rerouteNo="0" devices="tripinfo_E2W_31" vType="ego_car" speedFactor="1.18" vaporized=""/>
    <tripinfo id="E2W_32" depart="306.00" departLane="EW_0" departPos="5.00" departSpeed="10.00" departDelay="1.00" arrival="334.00" arrivalLane="-WE_0" arrivalPos="250.00" arrivalSpeed="20.00" duration="28.00" routeLength="509.40" waitingTime="0.00" waitingCount="0" stopTime="0.00" timeLoss="2.10" rerouteNo="0" devices="tripinfo_E2W_32" vType="ego_car" speedFactor="1.15" vaporized=""/>
    <tripinfo id="N2S_34" depart="308.00" departLane="NS_0" departPos="5.00" departSpeed="10.00" departDelay="0.00" arrival="355.00" arrivalLane="-SN_0" arrivalPos="250.00" arrivalSpeed="20.00" duration="47.00" routeLength="509.40" waitingTime="0.00" waitingCount="0" stopTime="0.00" timeLoss="20.54" rerouteNo="0" devices="tripinfo_N2S_34" vType="ego_car" speedFactor="1.17" vaporized=""/>
    <tripinfo id="S2N_30" depart="296.00" departLane="SN_0" departPos="5.00" departSpeed="10.00" departDelay="0.00" arrival="357.00" arrivalLane="-NS_0" arrivalPos="250.00" arrivalSpeed="18.63" duration="61.00" routeLength="509.40" waitingTime="26.00" waitingCount="1" stopTime="0.00" timeLoss="32.84" rerouteNo="0" devices="tripinfo_S2N_30" vType="ego_car" speedFactor="0.93" vaporized=""/>
    <tripinfo id="N2S_35" depart="323.00" departLane="NS_0" departPos="5.00" departSpeed="10.00" departDelay="0.00" arrival="357.00" arrivalLane="-SN_0" arrivalPos="250.00" arrivalSpeed="19.90" duration="34.00" routeLength="509.40" waitingTime="0.00" waitingCount="0" stopTime="0.00" timeLoss="7.84" rerouteNo="0" devices="tripinfo_N2S_35" vType="ego_car" speedFactor="0.99" vaporized=""/>
    <tripinfo id="S2N_33" depart="305.00" departLane="SN_0" departPos="5.00" departSpeed="10.00" departDelay="0.00" arrival="359.00" arrivalLane="-NS_0" arrivalPos="250.00" arrivalSpeed="20.00" duration="54.00" routeLength="509.40" waitingTime="0.00" waitingCount="0" stopTime="0.00" timeLoss="27.57" rerouteNo="0" devices="tripinfo_S2N_33" vType="ego_car" speedFactor="1.01" vaporized=""/>
    <tripinfo id="N2S_36" depart="328.00" departLane="NS_0" departPos="5.00" departSpeed="10.00" departDelay="0.00" arrival="359.00" arrivalLane="-SN_0" arrivalPos="250.00" arrivalSpeed="20.00" duration="31.00" routeLength="509.40" waitingTime="0.00" waitingCount="0" stopTime="0.00" timeLoss="5.16" rerouteNo="0" devices="tripinfo_N2S_36" vType="ego_car" speedFactor="1.02" vaporized=""/>
    <tripinfo id="S2N_37" depart="329.00" departLane="SN_0" departPos="5.00" departSpeed="10.00" departDelay="0.00" arrival="361.00" arrivalLane="-NS_0" arrivalPos="250.00" arrivalSpeed="19.46" duration="32.00" routeLength="509.40" waitingTime="0.00" waitingCount="0" stopTime="0.00" timeLoss="5.10" rerouteNo="0" devices="tripinfo_S2N_37" vType="ego_car" speedFactor="0.97" vaporized=""/>
    <tripinfo id="S2N_38" depart="347.00" departLane="SN_0" departPos="5.00" departSpeed="10.00" departDelay="0.00" arrival="374.00" arrivalLane="-NS_0" arrivalPos="250.00" arrivalSpeed="20.00" duration="27.00" routeLength="509.40" waitingTime="0.00" waitingCount="0" stopTime="0.00" timeLoss="1.25" rerouteNo="0" devices="tripinfo_S2N_38" vType="ego_car" speedFactor="1.18" vaporized=""/>
    <tripinfo id="E2W_39" depart="348.00" departLane="EW_0" departPos="5.00" departSpeed="10.00" departDelay="0.00" arrival="388.00" arrivalLane="-WE_0" arrivalPos="250.00" arrivalSpeed="20.00" duration="40.00" routeLength="509.40" waitingTime="0.00" waitingCount="0" stopTime="0.00" timeLoss="14.48" rerouteNo="0" devices="tripinfo_E2W_39" vType="ego_car" speedFactor="1.10" vaporized=""/>
    <tripinfo id="W2E_45" depart="387.00" departLane="WE_0" departPos="5.00" departSpeed="10.00" departDelay="0.00" arrival="414.00" arrivalLane="-EW_0" arrivalPos="250.00" arrivalSpeed="20.00" duration="27.00" routeLength="509.40" waitingTime="0.00" waitingCount="0" stopTime="0.00" timeLoss="1.23" rerouteNo="0" devices="tripinfo_W2E_45" vType="ego_car" speedFactor="1.04" vaporized=""/>
    <tripinfo id="E2W_46" depart="391.00" departLane="EW_0" departPos="5.00" departSpeed="10.00" departDelay="0.00" arrival="418.00" arrivalLane="-WE_0" arrivalPos="250.00" arrivalSpeed="20.00" duration="27.00" routeLength="509.40" waitingTime="0.00" waitingCount="0" stopTime="0.00" timeLoss="1.33" rerouteNo="0" devices="tripinfo_E2W_46" vType="ego_car" speedFactor="1.09" vaporized=""/>
    <tripinfo id="N2S_42" depart="369.00" departLane="NS_0" departPos="5.00" departSpeed="10.00" departDelay="0.00" arrival="423.00" arrivalLane="-SN_0" arrivalPos="250.00" arrivalSpeed="19.14" duration="54.00" routeLength="509.40" waitingTime="0.00" waitingCount="0" stopTime="0.00" timeLoss="26.79" rerouteNo="0" devices="tripinfo_N2S_42" vType="ego_car" speedFactor="0.96" vaporized=""/>
    <tripinfo id="S2N_40" depart="359.00" departLane="SN_0" departPos="5.00" departSpeed="10.00" departDelay="0.00" arrival="425.00" arrivalLane="-NS_0" arrivalPos="250.00" arrivalSpeed="18.01" duration="66.00" routeLength="509.40" waitingTime="30.00" waitingCount="1" stopTime="0.00" timeLoss="37.42" rerouteNo="0" devices="tripinfo_S2N_40" vType="ego_car" speedFactor="0.90" vaporized=""/>
    <tripinfo id="N2S_43" depart="376.00" departLane="NS_0" departPos="5.00" departSpeed="10.00" departDelay="0.00" arrival="425.00" arrivalLane="-SN_0" arrivalPos="250.00" arrivalSpeed="20.00" duration="49.00" routeLength="509.40" waitingTime="0.00" waitingCount="0" stopTime="0.00" timeLoss="22.95" rerouteNo="0" devices="tripinfo_N2S_43" vType="ego_car" speedFactor="1.09" vaporized=""/>
    <tripinfo id="S2N_41" depart="363.00" departLane="SN_0" departPos="5.00" departSpeed="10.00" departDelay="0.00" arrival="427.00" arrivalLane="-NS_0" arrivalPos="250.00" arrivalSpeed="20.00" duration="64.00" routeLength="509.40" waitingTime="25.00" waitingCount="1" stopTime="0.00" timeLoss="38.01" rerouteNo="0" devices="tripinfo_S2N_41" vType="ego_car" speedFactor="1.03" vaporized=""/>
    <tripinfo id="S2N_44" depart="376.00" departLane="SN_0" departPos="5.00" departSpeed="10.00" departDelay="0.00" arrival="429.00" arrivalLane="-NS_0" arrivalPos="250.00" arrivalSpeed="20.00" duration="53.00" routeLength="509.40" waitingTime="0.00" waitingCount="0" stopTime="0.00" timeLoss="26.81" rerouteNo="0" devices="tripinfo_S2N_44" vType="ego_car" speedFactor="1.04" vaporized=""/>
    <tripinfo id="S2N_47" depart="391.00" departLane="SN_0" departPos="5.00" departSpeed="10.00" departDelay="0.00" arrival="431.00" arrivalLane="-NS_0" arrivalPos="250.00" arrivalSpeed="19.95" duration="40.00" routeLength="509.40" waitingTime="0.00" waitingCount="0" stopTime="0.00" timeLoss="13.66" rerouteNo="0" devices="tripinfo_S2N_47" vType="ego_car" speedFactor="1.00" vaporized=""/>
    <tripinfo id="N2S_49" depart="402.00" departLane="NS_0" departPos="5.00" departSpeed="10.00" departDelay="0.00" arrival="432.00" arrivalLane="-SN_0" arrivalPos="250.00" arrivalSpeed="17.54" duration="30.00" routeLength="509.40" waitingTime="0.00" waitingCount="0" stopTime="0.00" timeLoss="0.61" rerouteNo="0" devices="tripinfo_N2S_49" vType="ego_car" speedFactor="0.88" vaporized=""/>
    <tripinfo id="S2N_50" depart="418.00" departLane="SN_0" departPos="5.00" departSpeed="10.00" departDelay="0.00" arrival="451.00" arrivalLane="-NS_0" arrivalPos="250.00" arrivalSpeed="17.01" duration="33.00" routeLength="509.40" waitingTime="0.00" waitingCount="0" stopTime="0.00" timeLoss="2.27" rerouteNo="0" devices="tripinfo_S2N_50" vType="ego_car" speedFactor="0.85" vaporized=""/>
    <tripinfo id="N2S_51" depart="422.00" departLane="NS_0" departPos="5.00" departSpeed="10.00" departDelay="0.00" arrival="453.00" arrivalLane="-SN_0" arrivalPos="250.00" arrivalSpeed="17.10" duration="31.00" routeLength="509.40" waitingTime="0.00" waitingCount="0" stopTime="0.00" timeLoss="0.87" rerouteNo="0" devices="tripinfo_N2S_51" vType="ego_car" speedFactor="0.85" vaporized=""/>
    <tripinfo id="N2S_52" depart="424.00" departLane="NS_0" departPos="5.00" departSpeed="10.00" departDelay="2.00" arrival="455.00" arrivalLane="-SN_0" arrivalPos="250.00" arrivalSpeed="20.00" duration="31.00" routeLength="509.40" waitingTime="0.00" waitingCount="0" stopTime="0.00" timeLoss="4.82" rerouteNo="0" devices="tripinfo_N2S_52" vType="ego_car" speedFactor="1.17" vaporized=""/>
    <tripinfo id="E2W_48" depart="394.00" departLane="EW_0" departPos="5.00" departSpeed="10.00" departDelay="0.00" arrival="459.00" arrivalLane="-WE_0" arrivalPos="250.00" arrivalSpeed="18.01" duration="65.00" routeLength="509.40" waitingTime="30.00" waitingCount="1" stopTime="0.00" timeLoss="36.36" rerouteNo="0" devices="tripinfo_E2W_48" vType="ego_car" speedFactor="0.90" vaporized=""/>
    <tripinfo id="E2W_53" depart="422.00" departLane="EW_0" departPos="5.00" departSpeed="10.00" departDelay="0.00" arrival="461.00" arrivalLane="-WE_0" arrivalPos="250.00" arrivalSpeed="20.00" duration="39.00" routeLength="509.40" waitingTime="0.00" waitingCount="0" stopTime="0.00" timeLoss="12.91" rerouteNo="0" devices="tripinfo_E2W_53" vType="ego_car" speedFactor="1.02" vaporized=""/>
    <tripinfo id="E2W_55" depart="433.00" departLane="EW_0" departPos="5.00" departSpeed="10.00" departDelay="0.00" arrival="463.00" arrivalLane="-WE_0" arrivalPos="250.00" arrivalSpeed="20.00" duration="30.00" routeLength="509.40" waitingTime="0.00" waitingCount="0" stopTime="0.00" timeLoss="3.95" rerouteNo="0" devices="tripinfo_E2W_55" vType="ego_car" speedFactor="1.00" vaporized=""/>
    <tripinfo id="E2W_57" depart="440.00" departLane="EW_0" departPos="5.00" departSpeed="10.00" departDelay="0.00" arrival="471.00" arrivalLane="-WE_0" arrivalPos="250.00" arrivalSpeed="17.98" duration="31.00" routeLength="509.40" waitingTime="0.00" waitingCount="0" stopTime="0.00" timeLoss="1.97" rerouteNo="0" devices="tripinfo_E2W_57" vType="ego_car" speedFactor="0.90" vaporized=""/>
    <tripinfo id="E2W_61" depart="460.00" departLane="EW_0" departPos="5.00" departSpeed="10.00" departDelay="0.00" arrival="487.00" arrivalLane="-WE_0" arrivalPos="250.00" arrivalSpeed="20.00" duration="27.00" routeLength="509.40" waitingTime="0.00" waitingCount="0" stopTime="0.00" timeLoss="1.00" rerouteNo="0" devices="tripinfo_E2W_61" vType="ego_car" speedFactor="1.08" vaporized=""/>
    <tripinfo id="N2S_54" depart="427.00" departLane="NS_0" departPos="5.00" departSpeed="10.00" departDelay="0.00" arrival="492.00" arrivalLane="-SN_0" arrivalPos="250.00" arrivalSpeed="20.00" duration="65.00" routeLength="509.40" waitingTime="31.00" waitingCount="1" stopTime="0.00" timeLoss="39.01" rerouteNo="0" devices="tripinfo_N2S_54" vType="ego_car" speedFactor="1.10" vaporized=""/>
    <tripinfo id="N2S_56" depart="435.00" departLane="NS_0" departPos="5.00" departSpeed="10.00" departDelay="0.00" arrival="495.00" arrivalLane="-SN_0" arrivalPos="250.00" arrivalSpeed="19.92" duration="60.00" routeLength="509.40" waitingTime="22.00" waitingCount="1" stopTime="0.00" timeLoss="33.45" rerouteNo="0" devices="tripinfo_N2S_56" vType="ego_car" speedFactor="1.00" vaporized=""/>
    <tripinfo id="S2N_63" depart="468.00" departLane="SN_0" departPos="5.00" departSpeed="10.00" departDelay="0.00" arrival="495.00" arrivalLane="-NS_0" arrivalPos="250.00" arrivalSpeed="20.00" duration="27.00" routeLength="509.40" waitingTime="0.00" waitingCount="0" stopTime="0.00" timeLoss="1.16" rerouteNo="0" devices="tripinfo_S2N_63" vType="ego_car" speedFactor="1.02" vaporized=""/>
    <tripinfo id="N2S_58" depart="443.00" departLane="NS_0" departPos="5.00" departSpeed="10.00" departDelay="0.00" arrival="497.00" arrivalLane="-SN_0" arrivalPos="250.00" arrivalSpeed="20.00" duration="54.00" routeLength="509.40" waitingTime="0.00" waitingCount="0" stopTime="0.00" timeLoss="28.43" rerouteNo="0" devices="tripinfo_N2S_58" vType="ego_car" speedFactor="1.14" vaporized=""/>
    <tripinfo id="N2S_59" depart="456.00" departLane="NS_0" departPos="5.00" departSpeed="10.00" departDelay="0.00" arrival="500.00" arrivalLane="-SN_0" arrivalPos="250.00" arrivalSpeed="20.00" duration="44.00" routeLength="509.40" waitingTime="0.00" waitingCount="0" stopTime="0.00" timeLoss="18.14" rerouteNo="0" devices="tripinfo_N2S_59" vType="ego_car" speedFactor="1.02" vaporized=""/>
    <tripinfo id="N2S_60" depart="460.00" departLane="NS_0" departPos="5.00" departSpeed="10.00" departDelay="4.00" arrival="503.00" arrivalLane="-SN_0" arrivalPos="250.00" arrivalSpeed="19.39" duration="43.00" routeLength="509.40" waitingTime="0.00" waitingCount="0" stopTime="0.00" timeLoss="16.07" rerouteNo="0" devices="tripinfo_N2S_60" vType="ego_car" speedFactor="0.97" vaporized=""/>
    <tripinfo id="N2S_62" depart="462.00" departLane="NS_0" departPos="5.00" departSpeed="10.00" departDelay="2.00" arrival="505.00" arrivalLane="-SN_0" arrivalPos="250.00" arrivalSpeed="20.00" duration="43.00" routeLength="509.40" waitingTime="0.00" waitingCount="0" stopTime="0.00" timeLoss="17.29" rerouteNo="0" devices="tripinfo_N2S_62" vType="ego_car" speedFactor="1.12" vaporized=""/>
    <tripinfo id="N2S_67" depart="477.00" departLane="NS_0" departPos="5.00" departSpeed="10.00" departDelay="0.00" arrival="511.00" arrivalLane="-SN_0" arrivalPos="250.00" arrivalSpeed="18.14" duration="34.00" routeLength="509.40" waitingTime="0.00" waitingCount="0" stopTime="0.00" timeLoss="5.16" rerouteNo="0" devices="tripinfo_N2S_67" vType="ego_car" speedFactor="0.91" vaporized=""/>
    <tripinfo id="N2S_68" depart="479.00" departLane="NS_0" departPos="5.00" departSpeed="10.00" departDelay="1.00" arrival="513.00" arrivalLane="-SN_0" arrivalPos="250.00" arrivalSpeed="18.29" duration="34.00" routeLength="509.40" waitingTime="0.00" waitingCount="0" stopTime="0.00" timeLoss="5.89" rerouteNo="0" devices="tripinfo_N2S_68" vType="ego_car" speedFactor="0.91" vaporized=""/>
    <tripinfo id="N2S_70" depart="483.00" departLane="NS_0" departPos="5.00" departSpeed="10.00" departDelay="0.00" arrival="515.00" arrivalLane="-SN_0" arrivalPos="250.00" arrivalSpeed="20.00" duration="32.00" routeLength="509.40" waitingTime="0.00" waitingCount="0" stopTime="0.00" timeLoss="6.08" rerouteNo="0" devices="tripinfo_N2S_70" vType="ego_car" speedFactor="1.02" vaporized=""/>
    <tripinfo id="S2N_71" depart="488.00" departLane="SN_0" departPos="5.00" departSpeed="10.00" departDelay="0.00" arrival="516.00" arrivalLane="-NS_0" arrivalPos="250.00" arrivalSpeed="20.00" duration="28.00" routeLength="509.40" waitingTime="0.00" waitingCount="0" stopTime="0.00" timeLoss="1.98" rerouteNo="0" devices="tripinfo_S2N_71" vType="ego_car" speedFactor="1.02" vaporized=""/>
    <tripinfo id="N2S_72" depart="493.00" departLane="NS_0" departPos="5.00" departSpeed="10.00" departDelay="0.00" arrival="521.00" arrivalLane="-SN_0" arrivalPos="250.00" arrivalSpeed="19.46" duration="28.00" routeLength="509.40" waitingTime="0.00" waitingCount="0" stopTime="0.00" timeLoss="1.04" rerouteNo="0" devices="tripinfo_N2S_72" vType="ego_car" speedFactor="0.97" vaporized=""/>
    <tripinfo id="E2W_64" depart="473.00" departLane="EW_0" departPos="5.00" departSpeed="10.00" departDelay="0.00" arrival="524.00" arrivalLane="-WE_0" arrivalPos="250.00" arrivalSpeed="19.74" duration="51.00" routeLength="509.40" waitingTime="0.00" waitingCount="0" stopTime="0.00" timeLoss="25.12" rerouteNo="0" devices="tripinfo_E2W_64" vType="ego_car" speedFactor="0.99" vaporized=""/>
    <tripinfo id="E2W_65" depart="478.00" departLane="EW_0" departPos="5.00" departSpeed="10.00" departDelay="3.00" arrival="528.00" arrivalLane="-WE_0" arrivalPos="250.00" arrivalSpeed="18.75" duration="50.00" routeLength="509.40" waitingTime="0.00" waitingCount="0" stopTime="0.00" timeLoss="22.29" rerouteNo="0" devices="tripinfo_E2W_65" vType="ego_car" speedFactor="0.94" vaporized=""/>
    <tripinfo id="E2W_66" depart="486.00" departLane="EW_0" departPos="5.00" departSpeed="10.00" departDelay="10.00" arrival="531.00" arrivalLane="-WE_0" arrivalPos="250.00" arrivalSpeed="17.65" duration="45.00" routeLength="509.40" waitingTime="0.00" waitingCount="0" stopTime="0.00" timeLoss="15.49" rerouteNo="0" devices="tripinfo_E2W_66" vType="ego_car" speedFactor="0.88" vaporized=""/>
    <tripinfo id="E2W_69" depart="489.00" departLane="EW_0" departPos="5.00" departSpeed="10.00" departDelay="8.00" arrival="533.00" arrivalLane="-WE_0" arrivalPos="250.00" arrivalSpeed="20.00" duration="44.00" routeLength="509.40" waitingTime="0.00" waitingCount="0" stopTime="0.00" timeLoss="17.63" rerouteNo="0" devices="tripinfo_E2W_69" vType="ego_car" speedFactor="1.04" vaporized=""/>
    <tripinfo id="E2W_74" depart="507.00" departLane="EW_0" departPos="5.00" departSpeed="10.00" departDelay="0.00" arrival="536.00" arrivalLane="-WE_0" arrivalPos="250.00" arrivalSpeed="20.00" duration="29.00" routeLength="509.40" waitingTime="0.00" waitingCount="0" stopTime="0.00" timeLoss="2.78" rerouteNo="0" devices="tripinfo_E2W_74" vType="ego_car" speedFactor="1.06" vaporized=""/>