<?xml version="1.0" encoding="UTF-8"?>

<!-- generated on 2023-04-17 17:14:14 by Eclipse SUMO sumo Version 1.13.0
<configuration xmlns:xsi="http://www.w3.org/2001/XMLSchema-instance" xsi:noNamespaceSchemaLocation="http://sumo.dlr.de/xsd/sumoConfiguration.xsd">

    <input>
        <net-file value="/home/yuwz/graduation_design/rou_net/intersection.net.xml"/>
        <route-files value="/home/yuwz/graduation_design/rou_net/intersection1.rou.xml"/>
    </input>

    <output>
        <tripinfo-output value="/home/yuwz/graduation_design/rou_net/tripinfo.xml"/>
    </output>

    <time>
        <begin value="0"/>
        <end value="3600"/>
        <step-length value="1"/>
    </time>

    <processing>
        <waiting-time-memory value="3600"/>
    </processing>

    <report>
        <no-step-log value="true"/>
    </report>

    <traci_server>
        <remote-port value="40447"/>
    </traci_server>

    <gui_only>
        <tracker-interval value="1"/>
    </gui_only>

</configuration>
-->

<tripinfos xmlns:xsi="http://www.w3.org/2001/XMLSchema-instance" xsi:noNamespaceSchemaLocation="http://sumo.dlr.de/xsd/tripinfo_file.xsd">
    <tripinfo id="W2E_1" depart="44.00" departLane="WE_0" departPos="5.00" departSpeed="10.00" departDelay="0.00" arrival="120.00" arrivalLane="-EW_0" arrivalPos="250.00" arrivalSpeed="20.00" duration="76.00" routeLength="509.40" waitingTime="32.00" waitingCount="2" stopTime="0.00" timeLoss="49.78" rerouteNo="0" devices="tripinfo_W2E_1" vType="ego_car" speedFactor="1.06" vaporized=""/>
    <tripinfo id="S2N_2" depart="97.00" departLane="SN_0" departPos="5.00" departSpeed="10.00" departDelay="0.00" arrival="154.00" arrivalLane="-NS_0" arrivalPos="250.00" arrivalSpeed="18.77" duration="57.00" routeLength="509.40" waitingTime="11.00" waitingCount="1" stopTime="0.00" timeLoss="29.35" rerouteNo="0" devices="tripinfo_S2N_2" vType="ego_car" speedFactor="0.94" vaporized=""/>
    <tripinfo id="S2N_4" depart="143.00" departLane="SN_0" departPos="5.00" departSpeed="10.00" departDelay="0.00" arrival="173.00" arrivalLane="-NS_0" arrivalPos="250.00" arrivalSpeed="20.00" duration="30.00" routeLength="509.40" waitingTime="0.00" waitingCount="0" stopTime="0.00" timeLoss="4.18" rerouteNo="0" devices="tripinfo_S2N_4" vType="ego_car" speedFactor="1.08" vaporized=""/>
    <tripinfo id="N2S_3" depart="143.00" departLane="NS_0" departPos="5.00" departSpeed="10.00" departDelay="0.00" arrival="174.00" arrivalLane="-SN_0" arrivalPos="250.00" arrivalSpeed="20.00" duration="31.00" routeLength="509.40" waitingTime="0.00" waitingCount="0" stopTime="0.00" timeLoss="5.26" rerouteNo="0" devices="tripinfo_N2S_3" vType="ego_car" speedFactor="1.01" vaporized=""/>
    <tripinfo id="E2W_5" depart="151.00" departLane="EW_0" departPos="5.00" departSpeed="10.00" departDelay="0.00" arrival="185.00" arrivalLane="-WE_0" arrivalPos="250.00" arrivalSpeed="20.00" duration="34.00" routeLength="509.40" waitingTime="0.00" waitingCount="0" stopTime="0.00" timeLoss="7.64" rerouteNo="0" devices="tripinfo_E2W_5" vType="ego_car" speedFactor="1.03" vaporized=""/>
    <tripinfo id="W2E_7" depart="159.00" departLane="WE_0" departPos="5.00" departSpeed="10.00" departDelay="0.00" arrival="199.00" arrivalLane="-EW_0" arrivalPos="250.00" arrivalSpeed="20.00" duration="40.00" routeLength="509.40" waitingTime="0.00" waitingCount="0" stopTime="0.00" timeLoss="14.09" rerouteNo="0" devices="tripinfo_W2E_7" vType="ego_car" speedFactor="1.05" vaporized=""/>
    <tripinfo id="S2N_8" depart="181.00" departLane="SN_0" departPos="5.00" departSpeed="10.00" departDelay="0.00" arrival="221.00" arrivalLane="-NS_0" arrivalPos="250.00" arrivalSpeed="17.72" duration="40.00" routeLength="509.40" waitingTime="1.00" waitingCount="1" stopTime="0.00" timeLoss="10.70" rerouteNo="0" devices="tripinfo_S2N_8" vType="ego_car" speedFactor="0.89" vaporized=""/>
    <tripinfo id="N2S_6" depart="156.00" departLane="NS_0" departPos="5.00" departSpeed="10.00" departDelay="0.00" arrival="222.00" arrivalLane="-SN_0" arrivalPos="250.00" arrivalSpeed="16.62" duration="66.00" routeLength="509.40" waitingTime="28.00" waitingCount="1" stopTime="0.00" timeLoss="34.73" rerouteNo="0" devices="tripinfo_N2S_6" vType="ego_car" speedFactor="0.83" vaporized=""/>
    <tripinfo id="N2S_11" depart="207.00" departLane="NS_0" departPos="5.00" departSpeed="10.00" departDelay="0.00" arrival="239.00" arrivalLane="-SN_0" arrivalPos="250.00" arrivalSpeed="20.00" duration="32.00" routeLength="509.40" waitingTime="0.00" waitingCount="0" stopTime="0.00" timeLoss="6.14" rerouteNo="0" devices="tripinfo_N2S_11" vType="ego_car" speedFactor="1.09" vaporized=""/>
    <tripinfo id="W2E_9" depart="186.00" departLane="WE_0" departPos="5.00" departSpeed="10.00" departDelay="0.00" arrival="254.00" arrivalLane="-EW_0" arrivalPos="250.00" arrivalSpeed="18.76" duration="68.00" routeLength="509.40" waitingTime="32.00" waitingCount="1" stopTime="0.00" timeLoss="40.64" rerouteNo="0" devices="tripinfo_W2E_9" vType="ego_car" speedFactor="0.94" vaporized=""/>
    <tripinfo id="E2W_10" depart="198.00" departLane="EW_0" departPos="5.00" departSpeed="10.00" departDelay="0.00" arrival="256.00" arrivalLane="-WE_0" arrivalPos="250.00" arrivalSpeed="17.14" duration="58.00" routeLength="509.40" waitingTime="16.00" waitingCount="1" stopTime="0.00" timeLoss="27.30" rerouteNo="0" devices="tripinfo_E2W_10" vType="ego_car" speedFactor="0.86" vaporized=""/>
    <tripinfo id="E2W_13" depart="235.00" departLane="EW_0" departPos="5.00" departSpeed="10.00" departDelay="0.00" arrival="282.00" arrivalLane="-WE_0" arrivalPos="250.00" arrivalSpeed="20.00" duration="47.00" routeLength="509.40" waitingTime="0.00" waitingCount="0" stopTime="0.00" timeLoss="20.72" rerouteNo="0" devices="tripinfo_E2W_13" vType="ego_car" speedFactor="1.05" vaporized=""/>
    <tripinfo id="S2N_14" depart="236.00" departLane="SN_0" departPos="5.00" departSpeed="10.00" departDelay="0.00" arrival="289.00" arrivalLane="-NS_0" arrivalPos="250.00" arrivalSpeed="20.00" duration="53.00" routeLength="509.40" waitingTime="7.00" waitingCount="1" stopTime="0.00" timeLoss="27.28" rerouteNo="0" devices="tripinfo_S2N_14" vType="ego_car" speedFactor="1.12" vaporized=""/>
    <tripinfo id="N2S_12" depart="224.00" departLane="NS_0" departPos="5.00" departSpeed="10.00" departDelay="0.00" arrival="290.00" arrivalLane="-SN_0" arrivalPos="250.00" arrivalSpeed="20.00" duration="66.00" routeLength="509.40" waitingTime="27.00" waitingCount="1" stopTime="0.00" timeLoss="40.18" rerouteNo="0" devices="tripinfo_N2S_12" vType="ego_car" speedFactor="1.03" vaporized=""/>
    <tripinfo id="S2N_15" depart="245.00" departLane="SN_0" departPos="5.00" departSpeed="10.00" departDelay="0.00" arrival="291.00" arrivalLane="-NS_0" arrivalPos="250.00" arrivalSpeed="19.82" duration="46.00" routeLength="509.40" waitingTime="0.00" waitingCount="0" stopTime="0.00" timeLoss="20.08" rerouteNo="0" devices="tripinfo_S2N_15" vType="ego_car" speedFactor="0.99" vaporized=""/>
    <tripinfo id="S2N_16" depart="252.00" departLane="SN_0" departPos="5.00" departSpeed="10.00" departDelay="0.00" arrival="296.00" arrivalLane="-NS_0" arrivalPos="250.00" arrivalSpeed="18.54" duration="44.00" routeLength="509.40" waitingTime="0.00" waitingCount="0" stopTime="0.00" timeLoss="16.10" rerouteNo="0" devices="tripinfo_S2N_16" vType="ego_car" speedFactor="0.93" vaporized=""/>
    <tripinfo id="S2N_17" depart="266.00" departLane="SN_0" departPos="5.00" departSpeed="10.00" departDelay="0.00" arrival="299.00" arrivalLane="-NS_0" arrivalPos="250.00" arrivalSpeed="17.57" duration="33.00" routeLength="509.40" waitingTime="0.00" waitingCount="0" stopTime="0.00" timeLoss="3.82" rerouteNo="0" devices="tripinfo_S2N_17" vType="ego_car" speedFactor="0.88" vaporized=""/>
    <tripinfo id="N2S_18" depart="267.00" departLane="NS_0" departPos="5.00" departSpeed="10.00" departDelay="0.00" arrival="302.00" arrivalLane="-SN_0" arrivalPos="250.00" arrivalSpeed="18.83" duration="35.00" routeLength="509.40" waitingTime="0.00" waitingCount="0" stopTime="0.00" timeLoss="7.70" rerouteNo="0" devices="tripinfo_N2S_18" vType="ego_car" speedFactor="0.94" vaporized=""/>
    <tripinfo id="S2N_19" depart="273.00" departLane="SN_0" departPos="5.00" departSpeed="10.00" departDelay="0.00" arrival="310.00" arrivalLane="-NS_0" arrivalPos="250.00" arrivalSpeed="18.72" duration="37.00" routeLength="509.40" waitingTime="0.00" waitingCount="0" stopTime="0.00" timeLoss="8.81" rerouteNo="0" devices="tripinfo_S2N_19" vType="ego_car" speedFactor="0.94" vaporized=""/>
    <tripinfo id="W2E_20" depart="278.00" departLane="WE_0" departPos="5.00" departSpeed="10.00" departDelay="0.00" arrival="322.00" arrivalLane="-EW_0" arrivalPos="250.00" arrivalSpeed="20.00" duration="44.00" routeLength="509.40" waitingTime="0.00" waitingCount="0" stopTime="0.00" timeLoss="17.76" rerouteNo="0" devices="tripinfo_W2E_20" vType="ego_car" speedFactor="1.16" vaporized=""/>
    <tripinfo id="E2W_22" depart="314.00" departLane="EW_0" departPos="5.00" departSpeed="10.00" departDelay="0.00" arrival="350.00" arrivalLane="-WE_0" arrivalPos="250.00" arrivalSpeed="20.00" duration="36.00" routeLength="509.40" waitingTime="0.00" waitingCount="0" stopTime="0.00" timeLoss="10.13" rerouteNo="0" devices="tripinfo_E2W_22" vType="ego_car" speedFactor="1.01" vaporized=""/>
    <tripinfo id="S2N_21" depart="290.00" departLane="SN_0" departPos="5.00" departSpeed="10.00" departDelay="0.00" arrival="358.00" arrivalLane="-NS_0" arrivalPos="250.00" arrivalSpeed="20.00" duration="68.00" routeLength="509.40" waitingTime="25.00" waitingCount="1" stopTime="0.00" timeLoss="42.11" rerouteNo="0" devices="tripinfo_S2N_21" vType="ego_car" speedFactor="1.02" vaporized=""/>
    <tripinfo id="N2S_25" depart="325.00" departLane="NS_0" departPos="5.00" departSpeed="10.00" departDelay="0.00" arrival="359.00" arrivalLane="-SN_0" arrivalPos="250.00" arrivalSpeed="16.51" duration="34.00" routeLength="509.40" waitingTime="0.00" waitingCount="0" stopTime="0.00" timeLoss="2.19" rerouteNo="0" devices="tripinfo_N2S_25" vType="ego_car" speedFactor="0.83" vaporized=""/>
    <tripinfo id="N2S_27" depart="342.00" departLane="NS_0" departPos="5.00" departSpeed="10.00" departDelay="0.00" arrival="373.00" arrivalLane="-SN_0" arrivalPos="250.00" arrivalSpeed="18.34" duration="31.00" routeLength="509.40" waitingTime="0.00" waitingCount="0" stopTime="0.00" timeLoss="2.74" rerouteNo="0" devices="tripinfo_N2S_27" vType="ego_car" speedFactor="0.92" vaporized=""/>
    <tripinfo id="W2E_23" depart="318.00" departLane="WE_0" departPos="5.00" departSpeed="10.00" departDelay="0.00" arrival="391.00" arrivalLane="-EW_0" arrivalPos="250.00" arrivalSpeed="19.50" duration="73.00" routeLength="509.40" waitingTime="32.00" waitingCount="1" stopTime="0.00" timeLoss="46.88" rerouteNo="0" devices="tripinfo_W2E_23" vType="ego_car" speedFactor="0.97" vaporized=""/>
    <tripinfo id="E2W_24" depart="320.00" departLane="EW_0" departPos="5.00" departSpeed="10.00" departDelay="0.00" arrival="392.00" arrivalLane="-WE_0" arrivalPos="250.00" arrivalSpeed="17.79" duration="72.00" routeLength="509.40" waitingTime="30.00" waitingCount="1" stopTime="0.00" timeLoss="43.27" rerouteNo="0" devices="tripinfo_E2W_24" vType="ego_car" speedFactor="0.89" vaporized=""/>
    <tripinfo id="W2E_26" depart="330.00" departLane="WE_0" departPos="5.00" departSpeed="10.00" departDelay="0.00" arrival="396.00" arrivalLane="-EW_0" arrivalPos="250.00" arrivalSpeed="17.45" duration="66.00" routeLength="509.40" waitingTime="21.00" waitingCount="1" stopTime="0.00" timeLoss="36.35" rerouteNo="0" devices="tripinfo_W2E_26" vType="ego_car" speedFactor="0.87" vaporized=""/>
    <tripinfo id="W2E_28" depart="344.00" departLane="WE_0" departPos="5.00" departSpeed="10.00" departDelay="0.00" arrival="398.00" arrivalLane="-EW_0" arrivalPos="250.00" arrivalSpeed="18.98" duration="54.00" routeLength="509.40" waitingTime="12.00" waitingCount="2" stopTime="0.00" timeLoss="26.67" rerouteNo="0" devices="tripinfo_W2E_28" vType="ego_car" speedFactor="0.95" vaporized=""/>
    <tripinfo id="W2E_30" depart="361.00" departLane="WE_0" departPos="5.00" departSpeed="10.00" departDelay="0.00" arrival="400.00" arrivalLane="-EW_0" arrivalPos="250.00" arrivalSpeed="18.63" duration="39.00" routeLength="509.40" waitingTime="0.00" waitingCount="0" stopTime="0.00" timeLoss="11.65" rerouteNo="0" devices="tripinfo_W2E_30" vType="ego_car" speedFactor="0.93" vaporized=""/>
    <tripinfo id="W2E_34" depart="381.00" departLane="WE_0" departPos="5.00" departSpeed="10.00" departDelay="0.00" arrival="414.00" arrivalLane="-EW_0" arrivalPos="250.00" arrivalSpeed="20.00" duration="33.00" routeLength="509.40" waitingTime="0.00" waitingCount="0" stopTime="0.00" timeLoss="6.82" rerouteNo="0" devices="tripinfo_W2E_34" vType="ego_car" speedFactor="1.17" vaporized=""/>
    <tripinfo id="W2E_35" depart="384.00" departLane="WE_0" departPos="5.00" departSpeed="10.00" departDelay="2.00" arrival="416.00" arrivalLane="-EW_0" arrivalPos="250.00" arrivalSpeed="19.90" duration="32.00" routeLength="509.40" waitingTime="0.00" waitingCount="0" stopTime="0.00" timeLoss="6.39" rerouteNo="0" devices="tripinfo_W2E_35" vType="ego_car" speedFactor="0.99" vaporized=""/>
    <tripinfo id="W2E_37" depart="386.00" departLane="WE_0" departPos="5.00" departSpeed="10.00" departDelay="0.00" arrival="419.00" arrivalLane="-EW_0" arrivalPos="250.00" arrivalSpeed="19.46" duration="33.00" routeLength="509.40" waitingTime="0.00" waitingCount="0" stopTime="0.00" timeLoss="6.36" rerouteNo="0" devices="tripinfo_W2E_37" vType="ego_car" speedFactor="0.97" vaporized=""/>
    <tripinfo id="S2N_29" depart="356.00" departLane="SN_0" departPos="5.00" departSpeed="10.00" departDelay="0.00" arrival="424.00" arrivalLane="-NS_0" arrivalPos="250.00" arrivalSpeed="20.00" duration="68.00" routeLength="509.40" waitingTime="29.00" waitingCount="1" stopTime="0.00" timeLoss="41.72" rerouteNo="0" devices="tripinfo_S2N_29" vType="ego_car" speedFactor="1.13" vaporized=""/>
    <tripinfo id="S2N_31" depart="363.00" departLane="SN_0" departPos="5.00" departSpeed="10.00" departDelay="0.00" arrival="427.00" arrivalLane="-NS_0" arrivalPos="250.00" arrivalSpeed="20.00" duration="64.00" routeLength="509.40" waitingTime="22.00" waitingCount="1" stopTime="0.00" timeLoss="37.58" rerouteNo="0" devices="tripinfo_S2N_31" vType="ego_car" speedFactor="1.18" vaporized=""/>
    <tripinfo id="S2N_32" depart="365.00" departLane="SN_0" departPos="5.00" departSpeed="10.00" departDelay="0.00" arrival="431.00" arrivalLane="-NS_0" arrivalPos="250.00" arrivalSpeed="20.00" duration="66.00" routeLength="509.40" waitingTime="20.00" waitingCount="1" stopTime="0.00" timeLoss="39.73" rerouteNo="0" devices="tripinfo_S2N_32" vType="ego_car" speedFactor="1.15" vaporized=""/>
    <tripinfo id="S2N_33" depart="380.00" departLane="SN_0" departPos="5.00" departSpeed="10.00" departDelay="0.00" arrival="433.00" arrivalLane="-NS_0" arrivalPos="250.00" arrivalSpeed="20.00" duration="53.00" routeLength="509.40" waitingTime="9.00" waitingCount="1" stopTime="0.00" timeLoss="27.32" rerouteNo="0" devices="tripinfo_S2N_33" vType="ego_car" speedFactor="1.01" vaporized=""/>
    <tripinfo id="S2N_36" depart="384.00" departLane="SN_0" departPos="5.00" departSpeed="10.00" departDelay="0.00" arrival="436.00" arrivalLane="-NS_0" arrivalPos="250.00" arrivalSpeed="20.00" duration="52.00" routeLength="509.40" waitingTime="6.00" waitingCount="1" stopTime="0.00" timeLoss="25.64" rerouteNo="0" devices="tripinfo_S2N_36" vType="ego_car" speedFactor="1.02" vaporized=""/>
    <tripinfo id="S2N_40" depart="389.00" departLane="SN_0" departPos="5.00" departSpeed="10.00" departDelay="0.00" arrival="440.00" arrivalLane="-NS_0" arrivalPos="250.00" arrivalSpeed="18.01" duration="51.00" routeLength="509.40" waitingTime="0.00" waitingCount="0" stopTime="0.00" timeLoss="22.04" rerouteNo="0" devices="tripinfo_S2N_40" vType="ego_car" speedFactor="0.90" vaporized=""/>
    <tripinfo id="S2N_42" depart="401.00" departLane="SN_0" departPos="5.00" departSpeed="10.00" departDelay="0.00" arrival="442.00" arrivalLane="-NS_0" arrivalPos="250.00" arrivalSpeed="19.14" duration="41.00" routeLength="509.40" waitingTime="0.00" waitingCount="0" stopTime="0.00" timeLoss="13.55" rerouteNo="0" devices="tripinfo_S2N_42" vType="ego_car" speedFactor="0.96" vaporized=""/>
    <tripinfo id="E2W_38" depart="387.00" departLane="EW_0" departPos="5.00" departSpeed="10.00" departDelay="0.00" arrival="458.00" arrivalLane="-WE_0" arrivalPos="250.00" arrivalSpeed="20.00" duration="71.00" routeLength="509.40" waitingTime="32.00" waitingCount="1" stopTime="0.00" timeLoss="44.69" rerouteNo="0" devices="tripinfo_E2W_38" vType="ego_car" speedFactor="1.18" vaporized=""/>
    <tripinfo id="W2E_39" depart="388.00" departLane="WE_0" departPos="5.00" departSpeed="10.00" departDelay="0.00" arrival="458.00" arrivalLane="-EW_0" arrivalPos="250.00" arrivalSpeed="20.00" duration="70.00" routeLength="509.40" waitingTime="31.00" waitingCount="1" stopTime="0.00" timeLoss="43.73" rerouteNo="0" devices="tripinfo_W2E_39" vType="ego_car" speedFactor="1.10" vaporized=""/>
    <tripinfo id="W2E_41" depart="391.00" departLane="WE_0" departPos="5.00" departSpeed="10.00" departDelay="0.00" arrival="464.00" arrivalLane="-EW_0" arrivalPos="250.00" arrivalSpeed="20.00" duration="73.00" routeLength="509.40" waitingTime="26.00" waitingCount="1" stopTime="0.00" timeLoss="47.28" rerouteNo="0" devices="tripinfo_W2E_41" vType="ego_car" speedFactor="1.03" vaporized=""/>
    <tripinfo id="W2E_46" depart="444.00" departLane="WE_0" departPos="5.00" departSpeed="10.00" departDelay="0.00" arrival="477.00" arrivalLane="-EW_0" arrivalPos="250.00" arrivalSpeed="20.00" duration="33.00" routeLength="509.40" waitingTime="0.00" waitingCount="0" stopTime="0.00" timeLoss="7.16" rerouteNo="0" devices="tripinfo_W2E_46" vType="ego_car" speedFactor="1.09" vaporized=""/>
    <tripinfo id="N2S_43" depart="424.00" departLane="NS_0" departPos="5.00" departSpeed="10.00" departDelay="0.00" arrival="492.00" arrivalLane="-SN_0" arrivalPos="250.00" arrivalSpeed="20.00" duration="68.00" routeLength="509.40" waitingTime="32.00" waitingCount="1" stopTime="0.00" timeLoss="41.81" rerouteNo="0" devices="tripinfo_N2S_43" vType="ego_car" speedFactor="1.09" vaporized=""/>
    <tripinfo id="S2N_44" depart="431.00" departLane="SN_0" departPos="5.00" departSpeed="10.00" departDelay="0.00" arrival="492.00" arrivalLane="-NS_0" arrivalPos="250.00" arrivalSpeed="20.00" duration="61.00" routeLength="509.40" waitingTime="19.00" waitingCount="1" stopTime="0.00" timeLoss="34.82" rerouteNo="0" devices="tripinfo_S2N_44" vType="ego_car" speedFactor="1.04" vaporized=""/>
    <tripinfo id="N2S_45" depart="437.00" departLane="NS_0" departPos="5.00" departSpeed="10.00" departDelay="0.00" arrival="498.00" arrivalLane="-SN_0" arrivalPos="250.00" arrivalSpeed="20.00" duration="61.00" routeLength="509.40" waitingTime="11.00" waitingCount="1" stopTime="0.00" timeLoss="35.29" rerouteNo="0" devices="tripinfo_N2S_45" vType="ego_car" speedFactor="1.04" vaporized=""/>
    <tripinfo id="S2N_50" depart="463.00" departLane="SN_0" departPos="5.00" departSpeed="10.00" departDelay="0.00" arrival="498.00" arrivalLane="-NS_0" arrivalPos="250.00" arrivalSpeed="17.01" duration="35.00" routeLength="509.40" waitingTime="0.00" waitingCount="0" stopTime="0.00" timeLoss="4.66" rerouteNo="0" devices="tripinfo_S2N_50" vType="ego_car" speedFactor="0.85" vaporized=""/>
    <tripinfo id="N2S_47" depart="456.00" departLane="NS_0" departPos="5.00" departSpeed="10.00" departDelay="0.00" arrival="503.00" arrivalLane="-SN_0" arrivalPos="250.00" arrivalSpeed="19.95" duration="47.00" routeLength="509.40" waitingTime="1.00" waitingCount="1" stopTime="0.00" timeLoss="20.78" rerouteNo="0" devices="tripinfo_N2S_47" vType="ego_car" speedFactor="1.00" vaporized=""/>
    <tripinfo id="N2S_49" depart="461.00" departLane="NS_0" departPos="5.00" departSpeed="10.00" departDelay="0.00" arrival="509.00" arrivalLane="-SN_0" arrivalPos="250.00" arrivalSpeed="17.54" duration="48.00" routeLength="509.40" waitingTime="0.00" waitingCount="0" stopTime="0.00" timeLoss="18.39" rerouteNo="0" devices="tripinfo_N2S_49" vType="ego_car" speedFactor="0.88" vaporized=""/>
    <tripinfo id="N2S_51" depart="468.00" departLane="NS_0" departPos="5.00" departSpeed="10.00" departDelay="0.00" arrival="512.00" arrivalLane="-SN_0" arrivalPos="250.00" arrivalSpeed="17.10" duration="44.00" routeLength="509.40" waitingTime="0.00" waitingCount="0" stopTime="0.00" timeLoss="13.95" rerouteNo="0" devices="tripinfo_N2S_51" vType="ego_car" speedFactor="0.85" vaporized=""/>
    <tripinfo id="E2W_56" depart="494.00" departLane="EW_0" departPos="5.00" departSpeed="10.00" departDelay="0.00" arrival="528.00" arrivalLane="-WE_0" arrivalPos="250.00" arrivalSpeed="19.92" duration="34.00" routeLength="509.40" waitingTime="0.00" waitingCount="0" stopTime="0.00" timeLoss="8.27" rerouteNo="0" devices="tripinfo_E2W_56" vType="ego_car" speedFactor="1.00" vaporized=""/>
    <tripinfo id="W2E_48" depart="459.00" departLane="WE_0" departPos="5.00" departSpeed="10.00" departDelay="0.00" arrival="533.00" arrivalLane="-EW_0" arrivalPos="250.00" arrivalSpeed="18.01" duration="74.00" routeLength="509.40" waitingTime="31.00" waitingCount="2" stopTime="0.00" timeLoss="44.83" rerouteNo="0" devices="tripinfo_W2E_48" vType="ego_car" speedFactor="0.90" vaporized=""/>
    <tripinfo id="W2E_52" depart="468.00" departLane="WE_0" departPos="5.00" departSpeed="10.00" departDelay="0.00" arrival="537.00" arrivalLane="-EW_0" arrivalPos="250.00" arrivalSpeed="20.00" duration="69.00" routeLength="509.40" waitingTime="22.00" waitingCount="2" stopTime="0.00" timeLoss="42.74" rerouteNo="0" devices="tripinfo_W2E_52" vType="ego_car" speedFactor="1.17" vaporized=""/>
    <tripinfo id="W2E_53" depart="471.00" departLane="WE_0" departPos="5.00" departSpeed="10.00" departDelay="0.00" arrival="543.00" arrivalLane="-EW_0" arrivalPos="250.00" arrivalSpeed="20.00" duration="72.00" routeLength="509.40" waitingTime="19.00" waitingCount="1" stopTime="0.00" timeLoss="46.13" rerouteNo="0" devices="tripinfo_W2E_53" vType="ego_car" speedFactor="1.02" vaporized=""/>
    <tripinfo id="W2E_54" depart="480.00" departLane="WE_0" departPos="5.00" departSpeed="10.00" departDelay="0.00" arrival="545.00" arrivalLane="-EW_0" arrivalPos="250.00" arrivalSpeed="20.00" duration="65.00" routeLength="509.40" waitingTime="14.00" waitingCount="1" stopTime="0.00" timeLoss="39.43" rerouteNo="0" devices="tripinfo_W2E_54" vType="ego_car" speedFactor="1.10" vaporized=""/>
    <tripinfo id="W2E_60" depart="496.00" departLane="WE_0" departPos="5.00" departSpeed="10.00" departDelay="0.00" arrival="551.00" arrivalLane="-EW_0" arrivalPos="250.00" arrivalSpeed="19.39" duration="55.00" routeLength="509.40" waitingTime="0.00" waitingCount="0" stopTime="0.00" timeLoss="28.09" rerouteNo="0" devices="tripinfo_W2E_60" vType="ego_car" speedFactor="0.97" vaporized=""/>
    <tripinfo id="W2E_64" depart="518.00" departLane="WE_0" departPos="5.00" departSpeed="10.00" departDelay="0.00" arrival="553.00" arrivalLane="-EW_0" arrivalPos="250.00" arrivalSpeed="19.74" duration="35.00" routeLength="509.40" waitingTime="0.00" waitingCount="0" stopTime="0.00" timeLoss="9.20" rerouteNo="0" devices="tripinfo_W2E_64" vType="ego_car" speedFactor="0.99" vaporized=""/>
    <tripinfo id="S2N_55" depart="486.00" departLane="SN_0" departPos="5.00" departSpeed="10.00" departDelay="0.00" arrival="561.00" arrivalLane="-NS_0" arrivalPos="250.00" arrivalSpeed="20.00" duration="75.00" routeLength="509.40" waitingTime="33.00" waitingCount="1" stopTime="0.00" timeLoss="49.37" rerouteNo="0" devices="tripinfo_S2N_55" vType="ego_car" speedFactor="1.00" vaporized=""/>
    <tripinfo id="N2S_57" depart="494.00" departLane="NS_0" departPos="5.00" departSpeed="10.00" departDelay="0.00" arrival="562.00" arrivalLane="-SN_0" arrivalPos="250.00" arrivalSpeed="17.98" duration="68.00" routeLength="509.40" waitingTime="27.00" waitingCount="1" stopTime="0.00" timeLoss="39.49" rerouteNo="0" devices="tripinfo_N2S_57" vType="ego_car" speedFactor="0.90" vaporized=""/>
    <tripinfo id="N2S_58" depart="497.00" departLane="NS_0" departPos="5.00" departSpeed="10.00" departDelay="3.00" arrival="566.00" arrivalLane="-SN_0" arrivalPos="250.00" arrivalSpeed="20.00" duration="69.00" routeLength="509.40" waitingTime="24.00" waitingCount="1" stopTime="0.00" timeLoss="42.80" rerouteNo="0" devices="tripinfo_N2S_58" vType="ego_car" speedFactor="1.14" vaporized=""/>
    <tripinfo id="S2N_61" depart="496.00" departLane="SN_0" departPos="5.00" departSpeed="10.00" departDelay="0.00" arrival="567.00" arrivalLane="-NS_0" arrivalPos="250.00" arrivalSpeed="20.00" duration="71.00" routeLength="509.40" waitingTime="24.00" waitingCount="2" stopTime="0.00" timeLoss="44.82" rerouteNo="0" devices="tripinfo_S2N_61" vType="ego_car" speedFactor="1.08" vaporized=""/>
    <tripinfo id="N2S_59" depart="499.00" departLane="NS_0" departPos="5.00" departSpeed="10.00" departDelay="4.00" arrival="572.00" arrivalLane="-SN_0" arrivalPos="250.00" arrivalSpeed="20.00" duration="73.00" routeLength="509.40" waitingTime="21.00" waitingCount="1" stopTime="0.00" timeLoss="46.88" rerouteNo="0" devices="tripinfo_N2S_59" vType="ego_car" speedFactor="1.02" vaporized=""/>
    <tripinfo id="N2S_62" depart="502.00" departLane="NS_0" departPos="5.00" departSpeed="10.00" departDelay="0.00" arrival="578.00" arrivalLane="-SN_0" arrivalPos="250.00" arrivalSpeed="20.00" duration="76.00" routeLength="509.40" waitingTime="17.00" waitingCount="1" stopTime="0.00" timeLoss="49.92" rerouteNo="0" devices="tripinfo_N2S_62" vType="ego_car" speedFactor="1.12" vaporized=""/>
    <tripinfo id="N2S_63" depart="517.00" departLane="NS_0" departPos="5.00" departSpeed="10.00" departDelay="0.00" arrival="584.00" arrivalLane="-SN_0" arrivalPos="250.00" arrivalSpeed="20.00" duration="67.00" routeLength="509.40" waitingTime="9.00" waitingCount="2" stopTime="0.00" timeLoss="41.48" rerouteNo="0" devices="tripinfo_N2S_63" vType="ego_car" speedFactor="1.02" vaporized=""/>
    <tripinfo id="N2S_66" depart="530.00" departLane="NS_0" departPos="5.00" departSpeed="10.00" departDelay="0.00" arrival="589.00" arrivalLane="-SN_0" arrivalPos="250.00" arrivalSpeed="17.65" duration="59.00" routeLength="509.40" waitingTime="0.00" waitingCount="0" stopTime="0.00" timeLoss="29.46" rerouteNo="0" devices="tripinfo_N2S_66" vType="ego_car" speedFactor="0.88" vaporized=""/>
    <tripinfo id="W2E_69" depart="549.00" departLane="WE_0" departPos="5.00" departSpeed="10.00" departDelay="0.00" arrival="594.00" arrivalLane="-EW_0" arrivalPos="250.00" arrivalSpeed="20.00" duration="45.00" routeLength="509.40" waitingTime="4.00" waitingCount="1" stopTime="0.00" timeLoss="19.28" rerouteNo="0" devices="tripinfo_W2E_69" vType="ego_car" speedFactor="1.04" vaporized=""/>
    <tripinfo id="E2W_65" depart="526.00" departLane="EW_0" departPos="5.00" departSpeed="10.00" departDelay="0.00" arrival="596.00" arrivalLane="-WE_0" arrivalPos="250.00" arrivalSpeed="18.75" duration="70.00" routeLength="509.40" waitingTime="30.00" waitingCount="1" stopTime="0.00" timeLoss="41.90" rerouteNo="0" devices="tripinfo_E2W_65" vType="ego_car" speedFactor="0.94" vaporized=""/>
    <tripinfo id="W2E_73" depart="560.00" departLane="WE_0" departPos="5.00" departSpeed="10.00" departDelay="0.00" arrival="598.00" arrivalLane="-EW_0" arrivalPos="250.00" arrivalSpeed="18.80" duration="38.00" routeLength="509.40" waitingTime="0.00" waitingCount="0" stopTime="0.00" timeLoss="10.36" rerouteNo="0" devices="tripinfo_W2E_73" vType="ego_car" speedFactor="0.94" vaporized=""/>
    <tripinfo id="E2W_70" depart="553.00" departLane="EW_0" departPos="5.00" departSpeed="10.00" departDelay="0.00" arrival="599.00" arrivalLane="-WE_0" arrivalPos="250.00" arrivalSpeed="20.00" duration="46.00" routeLength="509.40" waitingTime="1.00" waitingCount="1" stopTime="0.00" timeLoss="19.74" rerouteNo="0" devices="tripinfo_E2W_70" vType="ego_car" speedFactor="1.02" vaporized=""/>
    <tripinfo id="E2W_77" depart="574.00" departLane="EW_0" departPos="5.00" departSpeed="10.00" departDelay="0.00" arrival="607.00" arrivalLane="-WE_0" arrivalPos="250.00" arrivalSpeed="20.00" duration="33.00" routeLength="509.40" waitingTime="0.00" waitingCount="0" stopTime="0.00" timeLoss="7.45" rerouteNo="0" devices="tripinfo_E2W_77" vType="ego_car" speedFactor="1.03" vaporized=""/>
    <tripinfo id="W2E_78" depart="576.00" departLane="WE_0" departPos="5.00" departSpeed="10.00" departDelay="0.00" arrival="611.00" arrivalLane="-EW_0" arrivalPos="250.00" arrivalSpeed="19.64" duration="35.00" routeLength="509.40" waitingTime="0.00" waitingCount="0" stopTime="0.00" timeLoss="8.35" rerouteNo="0" devices="tripinfo_W2E_78" vType="ego_car" speedFactor="0.98" vaporized=""/>
    <tripinfo id="W2E_80" depart="585.00" departLane="WE_0" departPos="5.00" departSpeed="10.00" departDelay="0.00" arrival="623.00" arrivalLane="-EW_0" arrivalPos="250.00" arrivalSpeed="20.00" duration="38.00" routeLength="509.40" waitingTime="0.00" waitingCount="0" stopTime="0.00" timeLoss="11.73" rerouteNo="0" devices="tripinfo_W2E_80" vType="ego_car" speedFactor="1.09" vaporized=""/>
    <tripinfo id="N2S_67" depart="532.00" departLane="NS_0" departPos="5.00" departSpeed="10.00" departDelay="1.00" arrival="629.00" arrivalLane="-SN_0" arrivalPos="250.00" arrivalSpeed="18.14" duration="97.00" routeLength="509.40" waitingTime="34.00" waitingCount="1" stopTime="0.00" timeLoss="68.18" rerouteNo="0" devices="tripinfo_N2S_67" vType="ego_car" speedFactor="0.91" vaporized=""/>