<?xml version="1.0" encoding="UTF-8"?>

<!-- generated on 2023-04-13 13:06:12 by Eclipse SUMO sumo Version 1.13.0
<configuration xmlns:xsi="http://www.w3.org/2001/XMLSchema-instance" xsi:noNamespaceSchemaLocation="http://sumo.dlr.de/xsd/sumoConfiguration.xsd">

    <input>
        <net-file value="/home/yuwz/tmp/graduation_design/rou_net/intersection.net.xml"/>
        <route-files value="/home/yuwz/tmp/graduation_design/rou_net/intersection150.rou.xml"/>
    </input>

    <output>
        <tripinfo-output value="/home/yuwz/tmp/graduation_design/rou_net/tripinfo.xml"/>
    </output>

    <time>
        <begin value="0"/>
        <end value="3600"/>
        <step-length value="1"/>
    </time>

    <processing>
        <waiting-time-memory value="3600"/>
    </processing>

    <report>
        <no-step-log value="true"/>
    </report>

    <traci_server>
        <remote-port value="47133"/>
    </traci_server>

    <gui_only>
        <tracker-interval value="1"/>
    </gui_only>

</configuration>
-->

<tripinfos xmlns:xsi="http://www.w3.org/2001/XMLSchema-instance" xsi:noNamespaceSchemaLocation="http://sumo.dlr.de/xsd/tripinfo_file.xsd">
    <tripinfo id="W2E_1" depart="66.00" departLane="WE_0" departPos="5.00" departSpeed="10.00" departDelay="0.00" arrival="117.00" arrivalLane="-EW_0" arrivalPos="250.00" arrivalSpeed="20.00" duration="51.00" routeLength="509.40" waitingTime="0.00" waitingCount="0" stopTime="0.00" timeLoss="25.17" rerouteNo="0" devices="tripinfo_W2E_1" vType="ego_car" speedFactor="1.06" vaporized=""/>
    <tripinfo id="E2W_2" depart="95.00" departLane="EW_0" departPos="5.00" departSpeed="10.00" departDelay="0.00" arrival="124.00" arrivalLane="-WE_0" arrivalPos="250.00" arrivalSpeed="18.77" duration="29.00" routeLength="509.40" waitingTime="0.00" waitingCount="0" stopTime="0.00" timeLoss="1.70" rerouteNo="0" devices="tripinfo_E2W_2" vType="ego_car" speedFactor="0.94" vaporized=""/>
    <tripinfo id="S2N_3" depart="114.00" departLane="SN_0" departPos="5.00" departSpeed="10.00" departDelay="0.00" arrival="154.00" arrivalLane="-NS_0" arrivalPos="250.00" arrivalSpeed="20.00" duration="40.00" routeLength="509.40" waitingTime="0.00" waitingCount="0" stopTime="0.00" timeLoss="14.08" rerouteNo="0" devices="tripinfo_S2N_3" vType="ego_car" speedFactor="1.01" vaporized=""/>
    <tripinfo id="N2S_4" depart="138.00" departLane="NS_0" departPos="5.00" departSpeed="10.00" departDelay="0.00" arrival="180.00" arrivalLane="-SN_0" arrivalPos="250.00" arrivalSpeed="20.00" duration="42.00" routeLength="509.40" waitingTime="0.00" waitingCount="0" stopTime="0.00" timeLoss="16.46" rerouteNo="0" devices="tripinfo_N2S_4" vType="ego_car" speedFactor="1.08" vaporized=""/>
    <tripinfo id="N2S_5" depart="147.00" departLane="NS_0" departPos="5.00" departSpeed="10.00" departDelay="0.00" arrival="220.00" arrivalLane="-SN_0" arrivalPos="250.00" arrivalSpeed="20.00" duration="73.00" routeLength="509.40" waitingTime="31.00" waitingCount="1" stopTime="0.00" timeLoss="46.83" rerouteNo="0" devices="tripinfo_N2S_5" vType="ego_car" speedFactor="1.03" vaporized=""/>
    <tripinfo id="N2S_8" depart="207.00" departLane="NS_0" departPos="5.00" departSpeed="10.00" departDelay="0.00" arrival="249.00" arrivalLane="-SN_0" arrivalPos="250.00" arrivalSpeed="17.72" duration="42.00" routeLength="509.40" waitingTime="0.00" waitingCount="0" stopTime="0.00" timeLoss="12.37" rerouteNo="0" devices="tripinfo_N2S_8" vType="ego_car" speedFactor="0.89" vaporized=""/>
    <tripinfo id="E2W_7" depart="205.00" departLane="EW_0" departPos="5.00" departSpeed="10.00" departDelay="0.00" arrival="254.00" arrivalLane="-WE_0" arrivalPos="250.00" arrivalSpeed="20.00" duration="49.00" routeLength="509.40" waitingTime="0.00" waitingCount="0" stopTime="0.00" timeLoss="23.31" rerouteNo="0" devices="tripinfo_E2W_7" vType="ego_car" speedFactor="1.05" vaporized=""/>
    <tripinfo id="W2E_6" depart="202.00" departLane="WE_0" departPos="5.00" departSpeed="10.00" departDelay="0.00" arrival="257.00" arrivalLane="-EW_0" arrivalPos="250.00" arrivalSpeed="16.62" duration="55.00" routeLength="509.40" waitingTime="0.00" waitingCount="0" stopTime="0.00" timeLoss="23.76" rerouteNo="0" devices="tripinfo_W2E_6" vType="ego_car" speedFactor="0.83" vaporized=""/>
    <tripinfo id="E2W_9" depart="214.00" departLane="EW_0" departPos="5.00" departSpeed="10.00" departDelay="0.00" arrival="258.00" arrivalLane="-WE_0" arrivalPos="250.00" arrivalSpeed="18.76" duration="44.00" routeLength="509.40" waitingTime="1.00" waitingCount="1" stopTime="0.00" timeLoss="16.35" rerouteNo="0" devices="tripinfo_E2W_9" vType="ego_car" speedFactor="0.94" vaporized=""/>
    <tripinfo id="W2E_11" depart="238.00" departLane="WE_0" departPos="5.00" departSpeed="10.00" departDelay="0.00" arrival="276.00" arrivalLane="-EW_0" arrivalPos="250.00" arrivalSpeed="20.00" duration="38.00" routeLength="509.40" waitingTime="0.00" waitingCount="0" stopTime="0.00" timeLoss="12.49" rerouteNo="0" devices="tripinfo_W2E_11" vType="ego_car" speedFactor="1.09" vaporized=""/>
    <tripinfo id="N2S_10" depart="231.00" departLane="NS_0" departPos="5.00" departSpeed="10.00" departDelay="0.00" arrival="289.00" arrivalLane="-SN_0" arrivalPos="250.00" arrivalSpeed="17.14" duration="58.00" routeLength="509.40" waitingTime="0.00" waitingCount="0" stopTime="0.00" timeLoss="28.06" rerouteNo="0" devices="tripinfo_N2S_10" vType="ego_car" speedFactor="0.86" vaporized=""/>
    <tripinfo id="S2N_12" depart="259.00" departLane="SN_0" departPos="5.00" departSpeed="10.00" departDelay="0.00" arrival="290.00" arrivalLane="-NS_0" arrivalPos="250.00" arrivalSpeed="20.00" duration="31.00" routeLength="509.40" waitingTime="0.00" waitingCount="0" stopTime="0.00" timeLoss="5.22" rerouteNo="0" devices="tripinfo_S2N_12" vType="ego_car" speedFactor="1.03" vaporized=""/>
    <tripinfo id="S2N_13" depart="262.00" departLane="SN_0" departPos="5.00" departSpeed="10.00" departDelay="2.00" arrival="293.00" arrivalLane="-NS_0" arrivalPos="250.00" arrivalSpeed="20.00" duration="31.00" routeLength="509.40" waitingTime="0.00" waitingCount="0" stopTime="0.00" timeLoss="4.75" rerouteNo="0" devices="tripinfo_S2N_13" vType="ego_car" speedFactor="1.05" vaporized=""/>
    <tripinfo id="E2W_14" depart="267.00" departLane="EW_0" departPos="5.00" departSpeed="10.00" departDelay="0.00" arrival="322.00" arrivalLane="-WE_0" arrivalPos="250.00" arrivalSpeed="20.00" duration="55.00" routeLength="509.40" waitingTime="0.00" waitingCount="0" stopTime="0.00" timeLoss="29.41" rerouteNo="0" devices="tripinfo_E2W_14" vType="ego_car" speedFactor="1.12" vaporized=""/>
    <tripinfo id="W2E_15" depart="272.00" departLane="WE_0" departPos="5.00" departSpeed="10.00" departDelay="0.00" arrival="324.00" arrivalLane="-EW_0" arrivalPos="250.00" arrivalSpeed="19.82" duration="52.00" routeLength="509.40" waitingTime="0.00" waitingCount="0" stopTime="0.00" timeLoss="25.36" rerouteNo="0" devices="tripinfo_W2E_15" vType="ego_car" speedFactor="0.99" vaporized=""/>
    <tripinfo id="W2E_19" depart="297.00" departLane="WE_0" departPos="5.00" departSpeed="10.00" departDelay="0.00" arrival="328.00" arrivalLane="-EW_0" arrivalPos="250.00" arrivalSpeed="18.72" duration="31.00" routeLength="509.40" waitingTime="0.00" waitingCount="0" stopTime="0.00" timeLoss="3.42" rerouteNo="0" devices="tripinfo_W2E_19" vType="ego_car" speedFactor="0.94" vaporized=""/>
    <tripinfo id="E2W_22" depart="312.00" departLane="EW_0" departPos="5.00" departSpeed="10.00" departDelay="0.00" arrival="349.00" arrivalLane="-WE_0" arrivalPos="250.00" arrivalSpeed="20.00" duration="37.00" routeLength="509.40" waitingTime="0.00" waitingCount="0" stopTime="0.00" timeLoss="10.75" rerouteNo="0" devices="tripinfo_E2W_22" vType="ego_car" speedFactor="1.01" vaporized=""/>
    <tripinfo id="W2E_21" depart="307.00" departLane="WE_0" departPos="5.00" departSpeed="10.00" departDelay="0.00" arrival="350.00" arrivalLane="-EW_0" arrivalPos="250.00" arrivalSpeed="20.00" duration="43.00" routeLength="509.40" waitingTime="0.00" waitingCount="0" stopTime="0.00" timeLoss="17.01" rerouteNo="0" devices="tripinfo_W2E_21" vType="ego_car" speedFactor="1.02" vaporized=""/>
    <tripinfo id="S2N_20" depart="302.00" departLane="SN_0" departPos="5.00" departSpeed="10.00" departDelay="0.00" arrival="356.00" arrivalLane="-NS_0" arrivalPos="250.00" arrivalSpeed="20.00" duration="54.00" routeLength="509.40" waitingTime="0.00" waitingCount="0" stopTime="0.00" timeLoss="27.95" rerouteNo="0" devices="tripinfo_S2N_20" vType="ego_car" speedFactor="1.16" vaporized=""/>
    <tripinfo id="N2S_16" depart="282.00" departLane="NS_0" departPos="5.00" departSpeed="10.00" departDelay="0.00" arrival="357.00" arrivalLane="-SN_0" arrivalPos="250.00" arrivalSpeed="18.54" duration="75.00" routeLength="509.40" waitingTime="34.00" waitingCount="1" stopTime="0.00" timeLoss="46.59" rerouteNo="0" devices="tripinfo_N2S_16" vType="ego_car" speedFactor="0.93" vaporized=""/>
    <tripinfo id="N2S_17" depart="288.00" departLane="NS_0" departPos="5.00" departSpeed="10.00" departDelay="0.00" arrival="360.00" arrivalLane="-SN_0" arrivalPos="250.00" arrivalSpeed="17.57" duration="72.00" routeLength="509.40" waitingTime="31.00" waitingCount="1" stopTime="0.00" timeLoss="42.71" rerouteNo="0" devices="tripinfo_N2S_17" vType="ego_car" speedFactor="0.88" vaporized=""/>
    <tripinfo id="N2S_18" depart="291.00" departLane="NS_0" departPos="5.00" departSpeed="10.00" departDelay="0.00" arrival="363.00" arrivalLane="-SN_0" arrivalPos="250.00" arrivalSpeed="18.83" duration="72.00" routeLength="509.40" waitingTime="28.00" waitingCount="1" stopTime="0.00" timeLoss="44.92" rerouteNo="0" devices="tripinfo_N2S_18" vType="ego_car" speedFactor="0.94" vaporized=""/>
    <tripinfo id="N2S_24" depart="321.00" departLane="NS_0" departPos="5.00" departSpeed="10.00" departDelay="0.00" arrival="368.00" arrivalLane="-SN_0" arrivalPos="250.00" arrivalSpeed="17.79" duration="47.00" routeLength="509.40" waitingTime="0.00" waitingCount="0" stopTime="0.00" timeLoss="18.26" rerouteNo="0" devices="tripinfo_N2S_24" vType="ego_car" speedFactor="0.89" vaporized=""/>
    <tripinfo id="E2W_23" depart="318.00" departLane="EW_0" departPos="5.00" departSpeed="10.00" departDelay="0.00" arrival="390.00" arrivalLane="-WE_0" arrivalPos="250.00" arrivalSpeed="19.50" duration="72.00" routeLength="509.40" waitingTime="34.00" waitingCount="1" stopTime="0.00" timeLoss="45.28" rerouteNo="0" devices="tripinfo_E2W_23" vType="ego_car" speedFactor="0.97" vaporized=""/>
    <tripinfo id="W2E_25" depart="343.00" departLane="WE_0" departPos="5.00" departSpeed="10.00" departDelay="0.00" arrival="394.00" arrivalLane="-EW_0" arrivalPos="250.00" arrivalSpeed="16.51" duration="51.00" routeLength="509.40" waitingTime="0.00" waitingCount="0" stopTime="0.00" timeLoss="19.28" rerouteNo="0" devices="tripinfo_W2E_25" vType="ego_car" speedFactor="0.83" vaporized=""/>
    <tripinfo id="E2W_26" depart="357.00" departLane="EW_0" departPos="5.00" departSpeed="10.00" departDelay="0.00" arrival="394.00" arrivalLane="-WE_0" arrivalPos="250.00" arrivalSpeed="17.45" duration="37.00" routeLength="509.40" waitingTime="0.00" waitingCount="0" stopTime="0.00" timeLoss="6.93" rerouteNo="0" devices="tripinfo_E2W_26" vType="ego_car" speedFactor="0.87" vaporized=""/>
    <tripinfo id="W2E_28" depart="364.00" departLane="WE_0" departPos="5.00" departSpeed="10.00" departDelay="0.00" arrival="395.00" arrivalLane="-EW_0" arrivalPos="250.00" arrivalSpeed="18.98" duration="31.00" routeLength="509.40" waitingTime="0.00" waitingCount="0" stopTime="0.00" timeLoss="4.07" rerouteNo="0" devices="tripinfo_W2E_28" vType="ego_car" speedFactor="0.95" vaporized=""/>
    <tripinfo id="E2W_29" depart="366.00" departLane="EW_0" departPos="5.00" departSpeed="10.00" departDelay="0.00" arrival="395.00" arrivalLane="-WE_0" arrivalPos="250.00" arrivalSpeed="20.00" duration="29.00" routeLength="509.40" waitingTime="0.00" waitingCount="0" stopTime="0.00" timeLoss="3.47" rerouteNo="0" devices="tripinfo_E2W_29" vType="ego_car" speedFactor="1.13" vaporized=""/>
    <tripinfo id="W2E_30" depart="367.00" departLane="WE_0" departPos="5.00" departSpeed="10.00" departDelay="1.00" arrival="397.00" arrivalLane="-EW_0" arrivalPos="250.00" arrivalSpeed="18.63" duration="30.00" routeLength="509.40" waitingTime="0.00" waitingCount="0" stopTime="0.00" timeLoss="2.55" rerouteNo="0" devices="tripinfo_W2E_30" vType="ego_car" speedFactor="0.93" vaporized=""/>
    <tripinfo id="S2N_31" depart="370.00" departLane="SN_0" departPos="5.00" departSpeed="10.00" departDelay="0.00" arrival="425.00" arrivalLane="-NS_0" arrivalPos="250.00" arrivalSpeed="20.00" duration="55.00" routeLength="509.40" waitingTime="0.00" waitingCount="0" stopTime="0.00" timeLoss="29.19" rerouteNo="0" devices="tripinfo_S2N_31" vType="ego_car" speedFactor="1.18" vaporized=""/>
    <tripinfo id="N2S_27" depart="362.00" departLane="NS_0" departPos="5.00" departSpeed="10.00" departDelay="0.00" arrival="426.00" arrivalLane="-SN_0" arrivalPos="250.00" arrivalSpeed="18.34" duration="64.00" routeLength="509.40" waitingTime="0.00" waitingCount="0" stopTime="0.00" timeLoss="35.36" rerouteNo="0" devices="tripinfo_N2S_27" vType="ego_car" speedFactor="0.92" vaporized=""/>
    <tripinfo id="N2S_32" depart="372.00" departLane="NS_0" departPos="5.00" departSpeed="10.00" departDelay="0.00" arrival="427.00" arrivalLane="-SN_0" arrivalPos="250.00" arrivalSpeed="20.00" duration="55.00" routeLength="509.40" waitingTime="0.00" waitingCount="0" stopTime="0.00" timeLoss="29.46" rerouteNo="0" devices="tripinfo_N2S_32" vType="ego_car" speedFactor="1.15" vaporized=""/>
    <tripinfo id="S2N_33" depart="380.00" departLane="SN_0" departPos="5.00" departSpeed="10.00" departDelay="7.00" arrival="429.00" arrivalLane="-NS_0" arrivalPos="250.00" arrivalSpeed="20.00" duration="49.00" routeLength="509.40" waitingTime="0.00" waitingCount="0" stopTime="0.00" timeLoss="22.61" rerouteNo="0" devices="tripinfo_S2N_33" vType="ego_car" speedFactor="1.01" vaporized=""/>
    <tripinfo id="N2S_36" depart="392.00" departLane="NS_0" departPos="5.00" departSpeed="10.00" departDelay="0.00" arrival="429.00" arrivalLane="-SN_0" arrivalPos="250.00" arrivalSpeed="20.00" duration="37.00" routeLength="509.40" waitingTime="0.00" waitingCount="0" stopTime="0.00" timeLoss="11.42" rerouteNo="0" devices="tripinfo_N2S_36" vType="ego_car" speedFactor="1.02" vaporized=""/>
    <tripinfo id="S2N_35" depart="389.00" departLane="SN_0" departPos="5.00" departSpeed="10.00" departDelay="0.00" arrival="432.00" arrivalLane="-NS_0" arrivalPos="250.00" arrivalSpeed="19.90" duration="43.00" routeLength="509.40" waitingTime="0.00" waitingCount="0" stopTime="0.00" timeLoss="16.63" rerouteNo="0" devices="tripinfo_S2N_35" vType="ego_car" speedFactor="0.99" vaporized=""/>
    <tripinfo id="N2S_37" depart="401.00" departLane="NS_0" departPos="5.00" departSpeed="10.00" departDelay="7.00" arrival="433.00" arrivalLane="-SN_0" arrivalPos="250.00" arrivalSpeed="19.46" duration="32.00" routeLength="509.40" waitingTime="0.00" waitingCount="0" stopTime="0.00" timeLoss="4.92" rerouteNo="0" devices="tripinfo_N2S_37" vType="ego_car" speedFactor="0.97" vaporized=""/>
    <tripinfo id="S2N_40" depart="415.00" departLane="SN_0" departPos="5.00" departSpeed="10.00" departDelay="0.00" arrival="454.00" arrivalLane="-NS_0" arrivalPos="250.00" arrivalSpeed="18.01" duration="39.00" routeLength="509.40" waitingTime="0.00" waitingCount="0" stopTime="0.00" timeLoss="9.83" rerouteNo="0" devices="tripinfo_S2N_40" vType="ego_car" speedFactor="0.90" vaporized=""/>
    <tripinfo id="W2E_34" depart="383.00" departLane="WE_0" departPos="5.00" departSpeed="10.00" departDelay="0.00" arrival="458.00" arrivalLane="-EW_0" arrivalPos="250.00" arrivalSpeed="20.00" duration="75.00" routeLength="509.40" waitingTime="34.00" waitingCount="1" stopTime="0.00" timeLoss="48.80" rerouteNo="0" devices="tripinfo_W2E_34" vType="ego_car" speedFactor="1.17" vaporized=""/>
    <tripinfo id="W2E_38" depart="408.00" departLane="WE_0" departPos="5.00" departSpeed="10.00" departDelay="0.00" arrival="461.00" arrivalLane="-EW_0" arrivalPos="250.00" arrivalSpeed="20.00" duration="53.00" routeLength="509.40" waitingTime="0.00" waitingCount="0" stopTime="0.00" timeLoss="26.91" rerouteNo="0" devices="tripinfo_W2E_38" vType="ego_car" speedFactor="1.18" vaporized=""/>
    <tripinfo id="E2W_41" depart="434.00" departLane="EW_0" departPos="5.00" departSpeed="10.00" departDelay="0.00" arrival="461.00" arrivalLane="-WE_0" arrivalPos="250.00" arrivalSpeed="20.00" duration="27.00" routeLength="509.40" waitingTime="0.00" waitingCount="0" stopTime="0.00" timeLoss="1.10" rerouteNo="0" devices="tripinfo_E2W_41" vType="ego_car" speedFactor="1.03" vaporized=""/>
    <tripinfo id="W2E_39" depart="414.00" departLane="WE_0" departPos="5.00" departSpeed="10.00" departDelay="0.00" arrival="464.00" arrivalLane="-EW_0" arrivalPos="250.00" arrivalSpeed="20.00" duration="50.00" routeLength="509.40" waitingTime="1.00" waitingCount="1" stopTime="0.00" timeLoss="23.64" rerouteNo="0" devices="tripinfo_W2E_39" vType="ego_car" speedFactor="1.10" vaporized=""/>
    <tripinfo id="E2W_42" depart="436.00" departLane="EW_0" departPos="5.00" departSpeed="10.00" departDelay="0.00" arrival="466.00" arrivalLane="-WE_0" arrivalPos="250.00" arrivalSpeed="19.14" duration="30.00" routeLength="509.40" waitingTime="0.00" waitingCount="0" stopTime="0.00" timeLoss="2.50" rerouteNo="0" devices="tripinfo_E2W_42" vType="ego_car" speedFactor="0.96" vaporized=""/>
    <tripinfo id="W2E_43" depart="444.00" departLane="WE_0" departPos="5.00" departSpeed="10.00" departDelay="0.00" arrival="484.00" arrivalLane="-EW_0" arrivalPos="250.00" arrivalSpeed="20.00" duration="40.00" routeLength="509.40" waitingTime="0.00" waitingCount="0" stopTime="0.00" timeLoss="14.22" rerouteNo="0" devices="tripinfo_W2E_43" vType="ego_car" speedFactor="1.09" vaporized=""/>
    <tripinfo id="N2S_44" depart="449.00" departLane="NS_0" departPos="5.00" departSpeed="10.00" departDelay="0.00" arrival="495.00" arrivalLane="-SN_0" arrivalPos="250.00" arrivalSpeed="20.00" duration="46.00" routeLength="509.40" waitingTime="0.00" waitingCount="0" stopTime="0.00" timeLoss="20.22" rerouteNo="0" devices="tripinfo_N2S_44" vType="ego_car" speedFactor="1.04" vaporized=""/>
    <tripinfo id="N2S_47" depart="462.00" departLane="NS_0" departPos="5.00" departSpeed="10.00" departDelay="0.00" arrival="498.00" arrivalLane="-SN_0" arrivalPos="250.00" arrivalSpeed="19.95" duration="36.00" routeLength="509.40" waitingTime="0.00" waitingCount="0" stopTime="0.00" timeLoss="9.64" rerouteNo="0" devices="tripinfo_N2S_47" vType="ego_car" speedFactor="1.00" vaporized=""/>
    <tripinfo id="N2S_53" depart="482.00" departLane="NS_0" departPos="5.00" departSpeed="10.00" departDelay="0.00" arrival="518.00" arrivalLane="-SN_0" arrivalPos="250.00" arrivalSpeed="20.00" duration="36.00" routeLength="509.40" waitingTime="0.00" waitingCount="0" stopTime="0.00" timeLoss="10.39" rerouteNo="0" devices="tripinfo_N2S_53" vType="ego_car" speedFactor="1.02" vaporized=""/>
    <tripinfo id="S2N_54" depart="484.00" departLane="SN_0" departPos="5.00" departSpeed="10.00" departDelay="0.00" arrival="520.00" arrivalLane="-NS_0" arrivalPos="250.00" arrivalSpeed="20.00" duration="36.00" routeLength="509.40" waitingTime="0.00" waitingCount="0" stopTime="0.00" timeLoss="9.86" rerouteNo="0" devices="tripinfo_S2N_54" vType="ego_car" speedFactor="1.10" vaporized=""/>
    <tripinfo id="W2E_45" depart="454.00" departLane="WE_0" departPos="5.00" departSpeed="10.00" departDelay="0.00" arrival="526.00" arrivalLane="-EW_0" arrivalPos="250.00" arrivalSpeed="20.00" duration="72.00" routeLength="509.40" waitingTime="33.00" waitingCount="1" stopTime="0.00" timeLoss="45.70" rerouteNo="0" devices="tripinfo_W2E_45" vType="ego_car" speedFactor="1.04" vaporized=""/>
    <tripinfo id="W2E_46" depart="459.00" departLane="WE_0" departPos="5.00" departSpeed="10.00" departDelay="0.00" arrival="529.00" arrivalLane="-EW_0" arrivalPos="250.00" arrivalSpeed="20.00" duration="70.00" routeLength="509.40" waitingTime="29.00" waitingCount="1" stopTime="0.00" timeLoss="43.84" rerouteNo="0" devices="tripinfo_W2E_46" vType="ego_car" speedFactor="1.09" vaporized=""/>
    <tripinfo id="E2W_50" depart="474.00" departLane="EW_0" departPos="5.00" departSpeed="10.00" departDelay="0.00" arrival="530.00" arrivalLane="-WE_0" arrivalPos="250.00" arrivalSpeed="17.01" duration="56.00" routeLength="509.40" waitingTime="0.00" waitingCount="0" stopTime="0.00" timeLoss="25.10" rerouteNo="0" devices="tripinfo_E2W_50" vType="ego_car" speedFactor="0.85" vaporized=""/>
    <tripinfo id="E2W_57" depart="495.00" departLane="EW_0" departPos="5.00" departSpeed="10.00" departDelay="0.00" arrival="531.00" arrivalLane="-WE_0" arrivalPos="250.00" arrivalSpeed="17.98" duration="36.00" routeLength="509.40" waitingTime="0.00" waitingCount="0" stopTime="0.00" timeLoss="7.59" rerouteNo="0" devices="tripinfo_E2W_57" vType="ego_car" speedFactor="0.90" vaporized=""/>
    <tripinfo id="W2E_48" depart="473.00" departLane="WE_0" departPos="5.00" departSpeed="10.00" departDelay="0.00" arrival="533.00" arrivalLane="-EW_0" arrivalPos="250.00" arrivalSpeed="18.01" duration="60.00" routeLength="509.40" waitingTime="0.00" waitingCount="0" stopTime="0.00" timeLoss="30.95" rerouteNo="0" devices="tripinfo_W2E_48" vType="ego_car" speedFactor="0.90" vaporized=""/>
    <tripinfo id="E2W_59" depart="502.00" departLane="EW_0" departPos="5.00" departSpeed="10.00" departDelay="4.00" arrival="533.00" arrivalLane="-WE_0" arrivalPos="250.00" arrivalSpeed="20.00" duration="31.00" routeLength="509.40" waitingTime="0.00" waitingCount="0" stopTime="0.00" timeLoss="5.12" rerouteNo="0" devices="tripinfo_E2W_59" vType="ego_car" speedFactor="1.02" vaporized=""/>
    <tripinfo id="W2E_49" depart="480.00" departLane="WE_0" departPos="5.00" departSpeed="10.00" departDelay="7.00" arrival="536.00" arrivalLane="-EW_0" arrivalPos="250.00" arrivalSpeed="17.54" duration="56.00" routeLength="509.40" waitingTime="1.00" waitingCount="1" stopTime="0.00" timeLoss="26.01" rerouteNo="0" devices="tripinfo_W2E_49" vType="ego_car" speedFactor="0.88" vaporized=""/>
    <tripinfo id="W2E_51" depart="484.00" departLane="WE_0" departPos="5.00" departSpeed="10.00" departDelay="4.00" arrival="539.00" arrivalLane="-EW_0" arrivalPos="250.00" arrivalSpeed="17.10" duration="55.00" routeLength="509.40" waitingTime="0.00" waitingCount="0" stopTime="0.00" timeLoss="24.42" rerouteNo="0" devices="tripinfo_W2E_51" vType="ego_car" speedFactor="0.85" vaporized=""/>
    <tripinfo id="W2E_52" depart="490.00" departLane="WE_0" departPos="5.00" departSpeed="10.00" departDelay="10.00" arrival="541.00" arrivalLane="-EW_0" arrivalPos="250.00" arrivalSpeed="20.00" duration="51.00" routeLength="509.40" waitingTime="0.00" waitingCount="0" stopTime="0.00" timeLoss="24.78" rerouteNo="0" devices="tripinfo_W2E_52" vType="ego_car" speedFactor="1.17" vaporized=""/>
    <tripinfo id="W2E_64" depart="513.00" departLane="WE_0" departPos="5.00" departSpeed="10.00" departDelay="0.00" arrival="543.00" arrivalLane="-EW_0" arrivalPos="250.00" arrivalSpeed="19.74" duration="30.00" routeLength="509.40" waitingTime="0.00" waitingCount="0" stopTime="0.00" timeLoss="3.59" rerouteNo="0" devices="tripinfo_W2E_64" vType="ego_car" speedFactor="0.99" vaporized=""/>
    <tripinfo id="E2W_63" depart="513.00" departLane="EW_0" departPos="5.00" departSpeed="10.00" departDelay="0.00" arrival="552.00" arrivalLane="-WE_0" arrivalPos="250.00" arrivalSpeed="20.00" duration="39.00" routeLength="509.40" waitingTime="0.00" waitingCount="0" stopTime="0.00" timeLoss="12.75" rerouteNo="0" devices="tripinfo_E2W_63" vType="ego_car" speedFactor="1.02" vaporized=""/>
    <tripinfo id="N2S_55" depart="484.00" departLane="NS_0" departPos="5.00" departSpeed="10.00" departDelay="0.00" arrival="560.00" arrivalLane="-SN_0" arrivalPos="250.00" arrivalSpeed="20.00" duration="76.00" routeLength="509.40" waitingTime="35.00" waitingCount="1" stopTime="0.00" timeLoss="49.74" rerouteNo="0" devices="tripinfo_N2S_55" vType="ego_car" speedFactor="1.00" vaporized=""/>
    <tripinfo id="S2N_58" depart="496.00" departLane="SN_0" departPos="5.00" departSpeed="10.00" departDelay="0.00" arrival="560.00" arrivalLane="-NS_0" arrivalPos="250.00" arrivalSpeed="20.00" duration="64.00" routeLength="509.40" waitingTime="30.00" waitingCount="1" stopTime="0.00" timeLoss="37.73" rerouteNo="0" devices="tripinfo_S2N_58" vType="ego_car" speedFactor="1.14" vaporized=""/>
    <tripinfo id="N2S_56" depart="493.00" departLane="NS_0" departPos="5.00" departSpeed="10.00" departDelay="0.00" arrival="563.00" arrivalLane="-SN_0" arrivalPos="250.00" arrivalSpeed="19.92" duration="70.00" routeLength="509.40" waitingTime="31.00" waitingCount="1" stopTime="0.00" timeLoss="43.88" rerouteNo="0" devices="tripinfo_N2S_56" vType="ego_car" speedFactor="1.00" vaporized=""/>
    <tripinfo id="S2N_60" depart="499.00" departLane="SN_0" departPos="5.00" departSpeed="10.00" departDelay="0.00" arrival="565.00" arrivalLane="-NS_0" arrivalPos="250.00" arrivalSpeed="19.39" duration="66.00" routeLength="509.40" waitingTime="1.00" waitingCount="1" stopTime="0.00" timeLoss="39.28" rerouteNo="0" devices="tripinfo_S2N_60" vType="ego_car" speedFactor="0.97" vaporized=""/>
    <tripinfo id="N2S_61" depart="504.00" departLane="NS_0" departPos="5.00" departSpeed="10.00" departDelay="0.00" arrival="567.00" arrivalLane="-SN_0" arrivalPos="250.00" arrivalSpeed="20.00" duration="63.00" routeLength="509.40" waitingTime="0.00" waitingCount="0" stopTime="0.00" timeLoss="36.79" rerouteNo="0" devices="tripinfo_N2S_61" vType="ego_car" speedFactor="1.08" vaporized=""/>
    <tripinfo id="N2S_62" depart="512.00" departLane="NS_0" departPos="5.00" departSpeed="10.00" departDelay="1.00" arrival="571.00" arrivalLane="-SN_0" arrivalPos="250.00" arrivalSpeed="20.00" duration="59.00" routeLength="509.40" waitingTime="0.00" waitingCount="0" stopTime="0.00" timeLoss="33.18" rerouteNo="0" devices="tripinfo_N2S_62" vType="ego_car" speedFactor="1.12" vaporized=""/>
    <tripinfo id="S2N_67" depart="531.00" departLane="SN_0" departPos="5.00" departSpeed="10.00" departDelay="0.00" arrival="571.00" arrivalLane="-NS_0" arrivalPos="250.00" arrivalSpeed="18.14" duration="40.00" routeLength="509.40" waitingTime="0.00" waitingCount="0" stopTime="0.00" timeLoss="11.72" rerouteNo="0" devices="tripinfo_S2N_67" vType="ego_car" speedFactor="0.91" vaporized=""/>
    <tripinfo id="S2N_68" depart="535.00" departLane="SN_0" departPos="5.00" departSpeed="10.00" departDelay="0.00" arrival="575.00" arrivalLane="-NS_0" arrivalPos="250.00" arrivalSpeed="18.29" duration="40.00" routeLength="509.40" waitingTime="0.00" waitingCount="0" stopTime="0.00" timeLoss="11.68" rerouteNo="0" devices="tripinfo_S2N_68" vType="ego_car" speedFactor="0.91" vaporized=""/>
    <tripinfo id="N2S_70" depart="539.00" departLane="NS_0" departPos="5.00" departSpeed="10.00" departDelay="0.00" arrival="576.00" arrivalLane="-SN_0" arrivalPos="250.00" arrivalSpeed="20.00" duration="37.00" routeLength="509.40" waitingTime="0.00" waitingCount="0" stopTime="0.00" timeLoss="11.35" rerouteNo="0" devices="tripinfo_N2S_70" vType="ego_car" speedFactor="1.02" vaporized=""/>
    <tripinfo id="N2S_71" depart="543.00" departLane="NS_0" departPos="5.00" departSpeed="10.00" departDelay="0.00" arrival="581.00" arrivalLane="-SN_0" arrivalPos="250.00" arrivalSpeed="20.00" duration="38.00" routeLength="509.40" waitingTime="0.00" waitingCount="0" stopTime="0.00" timeLoss="11.68" rerouteNo="0" devices="tripinfo_N2S_71" vType="ego_car" speedFactor="1.02" vaporized=""/>
    <tripinfo id="S2N_72" depart="551.00" departLane="SN_0" departPos="5.00" departSpeed="10.00" departDelay="0.00" arrival="583.00" arrivalLane="-NS_0" arrivalPos="250.00" arrivalSpeed="19.46" duration="32.00" routeLength="509.40" waitingTime="0.00" waitingCount="0" stopTime="0.00" timeLoss="5.05" rerouteNo="0" devices="tripinfo_S2N_72" vType="ego_car" speedFactor="0.97" vaporized=""/>
    <tripinfo id="N2S_74" depart="551.00" departLane="NS_0" departPos="5.00" departSpeed="10.00" departDelay="0.00" arrival="585.00" arrivalLane="-SN_0" arrivalPos="250.00" arrivalSpeed="20.00" duration="34.00" routeLength="509.40" waitingTime="0.00" waitingCount="0" stopTime="0.00" timeLoss="7.65" rerouteNo="0" devices="tripinfo_N2S_74" vType="ego_car" speedFactor="1.06" vaporized=""/>
    <tripinfo id="S2N_75" depart="553.00" departLane="SN_0" departPos="5.00" departSpeed="10.00" departDelay="0.00" arrival="586.00" arrivalLane="-NS_0" arrivalPos="250.00" arrivalSpeed="19.10" duration="33.00" routeLength="509.40" waitingTime="0.00" waitingCount="0" stopTime="0.00" timeLoss="6.28" rerouteNo="0" devices="tripinfo_S2N_75" vType="ego_car" speedFactor="0.96" vaporized=""/>
    <tripinfo id="N2S_76" depart="557.00" departLane="NS_0" departPos="5.00" departSpeed="10.00" departDelay="0.00" arrival="589.00" arrivalLane="-SN_0" arrivalPos="250.00" arrivalSpeed="19.70" duration="32.00" routeLength="509.40" waitingTime="0.00" waitingCount="0" stopTime="0.00" timeLoss="5.57" rerouteNo="0" devices="tripinfo_N2S_76" vType="ego_car" speedFactor="0.98" vaporized=""/>
    <tripinfo id="W2E_65" depart="524.00" departLane="WE_0" departPos="5.00" departSpeed="10.00" departDelay="0.00" arrival="594.00" arrivalLane="-EW_0" arrivalPos="250.00" arrivalSpeed="18.75" duration="70.00" routeLength="509.40" waitingTime="18.00" waitingCount="1" stopTime="0.00" timeLoss="42.76" rerouteNo="0" devices="tripinfo_W2E_65" vType="ego_car" speedFactor="0.94" vaporized=""/>