<?xml version="1.0" encoding="UTF-8"?>

<!-- generated on 2023-04-13 10:16:13 by Eclipse SUMO sumo Version 1.13.0
<configuration xmlns:xsi="http://www.w3.org/2001/XMLSchema-instance" xsi:noNamespaceSchemaLocation="http://sumo.dlr.de/xsd/sumoConfiguration.xsd">

    <input>
        <net-file value="/home/yuwz/tmp/graduation_design/rou_net/intersection.net.xml"/>
        <route-files value="/home/yuwz/tmp/graduation_design/rou_net/intersection20.rou.xml"/>
    </input>

    <output>
        <tripinfo-output value="/home/yuwz/tmp/graduation_design/rou_net/tripinfo.xml"/>
    </output>

    <time>
        <begin value="0"/>
        <end value="3600"/>
        <step-length value="1"/>
    </time>

    <processing>
        <waiting-time-memory value="3600"/>
    </processing>

    <report>
        <no-step-log value="true"/>
    </report>

    <traci_server>
        <remote-port value="32847"/>
    </traci_server>

    <gui_only>
        <tracker-interval value="1"/>
    </gui_only>

</configuration>
-->

<tripinfos xmlns:xsi="http://www.w3.org/2001/XMLSchema-instance" xsi:noNamespaceSchemaLocation="http://sumo.dlr.de/xsd/tripinfo_file.xsd">
    <tripinfo id="E2W_1" depart="139.00" departLane="EW_0" departPos="5.00" departSpeed="10.00" departDelay="0.00" arrival="187.00" arrivalLane="-WE_0" arrivalPos="250.00" arrivalSpeed="20.00" duration="48.00" routeLength="509.40" waitingTime="0.00" waitingCount="0" stopTime="0.00" timeLoss="22.28" rerouteNo="0" devices="tripinfo_E2W_1" vType="ego_car" speedFactor="1.06" vaporized=""/>
    <tripinfo id="E2W_6" depart="172.00" departLane="EW_0" departPos="5.00" departSpeed="10.00" departDelay="0.00" arrival="210.00" arrivalLane="-WE_0" arrivalPos="250.00" arrivalSpeed="16.62" duration="38.00" routeLength="509.40" waitingTime="0.00" waitingCount="0" stopTime="0.00" timeLoss="7.21" rerouteNo="0" devices="tripinfo_E2W_6" vType="ego_car" speedFactor="0.83" vaporized=""/>
    <tripinfo id="N2S_2" depart="153.00" departLane="NS_0" departPos="5.00" departSpeed="10.00" departDelay="0.00" arrival="220.00" arrivalLane="-SN_0" arrivalPos="250.00" arrivalSpeed="18.77" duration="67.00" routeLength="509.40" waitingTime="32.00" waitingCount="1" stopTime="0.00" timeLoss="39.82" rerouteNo="0" devices="tripinfo_N2S_2" vType="ego_car" speedFactor="0.94" vaporized=""/>
    <tripinfo id="S2N_3" depart="155.00" departLane="SN_0" departPos="5.00" departSpeed="10.00" departDelay="0.00" arrival="220.00" arrivalLane="-NS_0" arrivalPos="250.00" arrivalSpeed="20.00" duration="65.00" routeLength="509.40" waitingTime="1.00" waitingCount="1" stopTime="0.00" timeLoss="39.43" rerouteNo="0" devices="tripinfo_S2N_3" vType="ego_car" speedFactor="1.01" vaporized=""/>
    <tripinfo id="N2S_4" depart="158.00" departLane="NS_0" departPos="5.00" departSpeed="10.00" departDelay="0.00" arrival="222.00" arrivalLane="-SN_0" arrivalPos="250.00" arrivalSpeed="20.00" duration="64.00" routeLength="509.40" waitingTime="0.00" waitingCount="0" stopTime="0.00" timeLoss="38.19" rerouteNo="0" devices="tripinfo_N2S_4" vType="ego_car" speedFactor="1.08" vaporized=""/>
    <tripinfo id="S2N_5" depart="166.00" departLane="SN_0" departPos="5.00" departSpeed="10.00" departDelay="0.00" arrival="222.00" arrivalLane="-NS_0" arrivalPos="250.00" arrivalSpeed="20.00" duration="56.00" routeLength="509.40" waitingTime="0.00" waitingCount="0" stopTime="0.00" timeLoss="30.19" rerouteNo="0" devices="tripinfo_S2N_5" vType="ego_car" speedFactor="1.03" vaporized=""/>
    <tripinfo id="N2S_7" depart="189.00" departLane="NS_0" departPos="5.00" departSpeed="10.00" departDelay="0.00" arrival="224.00" arrivalLane="-SN_0" arrivalPos="250.00" arrivalSpeed="20.00" duration="35.00" routeLength="509.40" waitingTime="0.00" waitingCount="0" stopTime="0.00" timeLoss="8.92" rerouteNo="0" devices="tripinfo_N2S_7" vType="ego_car" speedFactor="1.05" vaporized=""/>
    <tripinfo id="N2S_9" depart="205.00" departLane="NS_0" departPos="5.00" departSpeed="10.00" departDelay="0.00" arrival="240.00" arrivalLane="-SN_0" arrivalPos="250.00" arrivalSpeed="18.76" duration="35.00" routeLength="509.40" waitingTime="0.00" waitingCount="0" stopTime="0.00" timeLoss="6.87" rerouteNo="0" devices="tripinfo_N2S_9" vType="ego_car" speedFactor="0.94" vaporized=""/>
    <tripinfo id="W2E_8" depart="202.00" departLane="WE_0" departPos="5.00" departSpeed="10.00" departDelay="0.00" arrival="255.00" arrivalLane="-EW_0" arrivalPos="250.00" arrivalSpeed="17.72" duration="53.00" routeLength="509.40" waitingTime="0.00" waitingCount="0" stopTime="0.00" timeLoss="24.21" rerouteNo="0" devices="tripinfo_W2E_8" vType="ego_car" speedFactor="0.89" vaporized=""/>
    <tripinfo id="N2S_12" depart="254.00" departLane="NS_0" departPos="5.00" departSpeed="10.00" departDelay="0.00" arrival="289.00" arrivalLane="-SN_0" arrivalPos="250.00" arrivalSpeed="20.00" duration="35.00" routeLength="509.40" waitingTime="0.00" waitingCount="0" stopTime="0.00" timeLoss="8.69" rerouteNo="0" devices="tripinfo_N2S_12" vType="ego_car" speedFactor="1.03" vaporized=""/>
    <tripinfo id="S2N_10" depart="225.00" departLane="SN_0" departPos="5.00" departSpeed="10.00" departDelay="0.00" arrival="295.00" arrivalLane="-NS_0" arrivalPos="250.00" arrivalSpeed="17.14" duration="70.00" routeLength="509.40" waitingTime="0.00" waitingCount="0" stopTime="0.00" timeLoss="40.24" rerouteNo="0" devices="tripinfo_S2N_10" vType="ego_car" speedFactor="0.86" vaporized=""/>
    <tripinfo id="S2N_11" depart="235.00" departLane="SN_0" departPos="5.00" departSpeed="10.00" departDelay="9.00" arrival="297.00" arrivalLane="-NS_0" arrivalPos="250.00" arrivalSpeed="20.00" duration="62.00" routeLength="509.40" waitingTime="0.00" waitingCount="0" stopTime="0.00" timeLoss="36.07" rerouteNo="0" devices="tripinfo_S2N_11" vType="ego_car" speedFactor="1.09" vaporized=""/>
    <tripinfo id="S2N_13" depart="260.00" departLane="SN_0" departPos="5.00" departSpeed="10.00" departDelay="0.00" arrival="299.00" arrivalLane="-NS_0" arrivalPos="250.00" arrivalSpeed="20.00" duration="39.00" routeLength="509.40" waitingTime="0.00" waitingCount="0" stopTime="0.00" timeLoss="12.79" rerouteNo="0" devices="tripinfo_S2N_13" vType="ego_car" speedFactor="1.05" vaporized=""/>
    <tripinfo id="N2S_16" depart="278.00" departLane="NS_0" departPos="5.00" departSpeed="10.00" departDelay="0.00" arrival="313.00" arrivalLane="-SN_0" arrivalPos="250.00" arrivalSpeed="18.54" duration="35.00" routeLength="509.40" waitingTime="0.00" waitingCount="0" stopTime="0.00" timeLoss="7.02" rerouteNo="0" devices="tripinfo_N2S_16" vType="ego_car" speedFactor="0.93" vaporized=""/>
    <tripinfo id="N2S_17" depart="281.00" departLane="NS_0" departPos="5.00" departSpeed="10.00" departDelay="1.00" arrival="316.00" arrivalLane="-SN_0" arrivalPos="250.00" arrivalSpeed="17.57" duration="35.00" routeLength="509.40" waitingTime="0.00" waitingCount="0" stopTime="0.00" timeLoss="5.52" rerouteNo="0" devices="tripinfo_N2S_17" vType="ego_car" speedFactor="0.88" vaporized=""/>
    <tripinfo id="E2W_14" depart="277.00" departLane="EW_0" departPos="5.00" departSpeed="10.00" departDelay="0.00" arrival="322.00" arrivalLane="-WE_0" arrivalPos="250.00" arrivalSpeed="20.00" duration="45.00" routeLength="509.40" waitingTime="0.00" waitingCount="0" stopTime="0.00" timeLoss="19.30" rerouteNo="0" devices="tripinfo_E2W_14" vType="ego_car" speedFactor="1.12" vaporized=""/>
    <tripinfo id="W2E_18" depart="288.00" departLane="WE_0" departPos="5.00" departSpeed="10.00" departDelay="0.00" arrival="323.00" arrivalLane="-EW_0" arrivalPos="250.00" arrivalSpeed="18.83" duration="35.00" routeLength="509.40" waitingTime="0.00" waitingCount="0" stopTime="0.00" timeLoss="6.96" rerouteNo="0" devices="tripinfo_W2E_18" vType="ego_car" speedFactor="0.94" vaporized=""/>
    <tripinfo id="E2W_15" depart="283.00" departLane="EW_0" departPos="5.00" departSpeed="10.00" departDelay="5.00" arrival="324.00" arrivalLane="-WE_0" arrivalPos="250.00" arrivalSpeed="19.82" duration="41.00" routeLength="509.40" waitingTime="0.00" waitingCount="0" stopTime="0.00" timeLoss="14.83" rerouteNo="0" devices="tripinfo_E2W_15" vType="ego_car" speedFactor="0.99" vaporized=""/>
    <tripinfo id="E2W_19" depart="291.00" departLane="EW_0" departPos="5.00" departSpeed="10.00" departDelay="0.00" arrival="326.00" arrivalLane="-WE_0" arrivalPos="250.00" arrivalSpeed="18.72" duration="35.00" routeLength="509.40" waitingTime="0.00" waitingCount="0" stopTime="0.00" timeLoss="7.60" rerouteNo="0" devices="tripinfo_E2W_19" vType="ego_car" speedFactor="0.94" vaporized=""/>
    <tripinfo id="E2W_21" depart="308.00" departLane="EW_0" departPos="5.00" departSpeed="10.00" departDelay="0.00" arrival="340.00" arrivalLane="-WE_0" arrivalPos="250.00" arrivalSpeed="20.00" duration="32.00" routeLength="509.40" waitingTime="0.00" waitingCount="0" stopTime="0.00" timeLoss="6.31" rerouteNo="0" devices="tripinfo_E2W_21" vType="ego_car" speedFactor="1.02" vaporized=""/>
    <tripinfo id="E2W_22" depart="311.00" departLane="EW_0" departPos="5.00" departSpeed="10.00" departDelay="0.00" arrival="342.00" arrivalLane="-WE_0" arrivalPos="250.00" arrivalSpeed="20.00" duration="31.00" routeLength="509.40" waitingTime="0.00" waitingCount="0" stopTime="0.00" timeLoss="5.40" rerouteNo="0" devices="tripinfo_E2W_22" vType="ego_car" speedFactor="1.01" vaporized=""/>
    <tripinfo id="N2S_23" depart="326.00" departLane="NS_0" departPos="5.00" departSpeed="10.00" departDelay="0.00" arrival="355.00" arrivalLane="-SN_0" arrivalPos="250.00" arrivalSpeed="19.50" duration="29.00" routeLength="509.40" waitingTime="0.00" waitingCount="0" stopTime="0.00" timeLoss="2.50" rerouteNo="0" devices="tripinfo_N2S_23" vType="ego_car" speedFactor="0.97" vaporized=""/>
    <tripinfo id="S2N_20" depart="303.00" departLane="SN_0" departPos="5.00" departSpeed="10.00" departDelay="0.00" arrival="360.00" arrivalLane="-NS_0" arrivalPos="250.00" arrivalSpeed="20.00" duration="57.00" routeLength="509.40" waitingTime="0.00" waitingCount="0" stopTime="0.00" timeLoss="30.87" rerouteNo="0" devices="tripinfo_S2N_20" vType="ego_car" speedFactor="1.16" vaporized=""/>
    <tripinfo id="S2N_24" depart="327.00" departLane="SN_0" departPos="5.00" departSpeed="10.00" departDelay="0.00" arrival="363.00" arrivalLane="-NS_0" arrivalPos="250.00" arrivalSpeed="17.79" duration="36.00" routeLength="509.40" waitingTime="0.00" waitingCount="0" stopTime="0.00" timeLoss="6.81" rerouteNo="0" devices="tripinfo_S2N_24" vType="ego_car" speedFactor="0.89" vaporized=""/>
    <tripinfo id="N2S_27" depart="340.00" departLane="NS_0" departPos="5.00" departSpeed="10.00" departDelay="0.00" arrival="379.00" arrivalLane="-SN_0" arrivalPos="250.00" arrivalSpeed="18.34" duration="39.00" routeLength="509.40" waitingTime="0.00" waitingCount="0" stopTime="0.00" timeLoss="10.52" rerouteNo="0" devices="tripinfo_N2S_27" vType="ego_car" speedFactor="0.92" vaporized=""/>
    <tripinfo id="N2S_28" depart="348.00" departLane="NS_0" departPos="5.00" departSpeed="10.00" departDelay="0.00" arrival="381.00" arrivalLane="-SN_0" arrivalPos="250.00" arrivalSpeed="18.98" duration="33.00" routeLength="509.40" waitingTime="0.00" waitingCount="0" stopTime="0.00" timeLoss="5.31" rerouteNo="0" devices="tripinfo_N2S_28" vType="ego_car" speedFactor="0.95" vaporized=""/>
    <tripinfo id="N2S_29" depart="354.00" departLane="NS_0" departPos="5.00" departSpeed="10.00" departDelay="0.00" arrival="383.00" arrivalLane="-SN_0" arrivalPos="250.00" arrivalSpeed="20.00" duration="29.00" routeLength="509.40" waitingTime="0.00" waitingCount="0" stopTime="0.00" timeLoss="3.06" rerouteNo="0" devices="tripinfo_N2S_29" vType="ego_car" speedFactor="1.13" vaporized=""/>
    <tripinfo id="W2E_26" depart="332.00" departLane="WE_0" departPos="5.00" departSpeed="10.00" departDelay="0.00" arrival="396.00" arrivalLane="-EW_0" arrivalPos="250.00" arrivalSpeed="17.45" duration="64.00" routeLength="509.40" waitingTime="0.00" waitingCount="0" stopTime="0.00" timeLoss="34.08" rerouteNo="0" devices="tripinfo_W2E_26" vType="ego_car" speedFactor="0.87" vaporized=""/>
    <tripinfo id="E2W_25" depart="330.00" departLane="EW_0" departPos="5.00" departSpeed="10.00" departDelay="0.00" arrival="400.00" arrivalLane="-WE_0" arrivalPos="250.00" arrivalSpeed="16.51" duration="70.00" routeLength="509.40" waitingTime="0.00" waitingCount="0" stopTime="0.00" timeLoss="38.17" rerouteNo="0" devices="tripinfo_E2W_25" vType="ego_car" speedFactor="0.83" vaporized=""/>
    <tripinfo id="S2N_30" depart="376.00" departLane="SN_0" departPos="5.00" departSpeed="10.00" departDelay="0.00" arrival="424.00" arrivalLane="-NS_0" arrivalPos="250.00" arrivalSpeed="18.63" duration="48.00" routeLength="509.40" waitingTime="0.00" waitingCount="0" stopTime="0.00" timeLoss="20.66" rerouteNo="0" devices="tripinfo_S2N_30" vType="ego_car" speedFactor="0.93" vaporized=""/>
    <tripinfo id="N2S_32" depart="380.00" departLane="NS_0" departPos="5.00" departSpeed="10.00" departDelay="0.00" arrival="424.00" arrivalLane="-SN_0" arrivalPos="250.00" arrivalSpeed="20.00" duration="44.00" routeLength="509.40" waitingTime="0.00" waitingCount="0" stopTime="0.00" timeLoss="17.66" rerouteNo="0" devices="tripinfo_N2S_32" vType="ego_car" speedFactor="1.15" vaporized=""/>
    <tripinfo id="N2S_33" depart="387.00" departLane="NS_0" departPos="5.00" departSpeed="10.00" departDelay="5.00" arrival="425.00" arrivalLane="-SN_0" arrivalPos="250.00" arrivalSpeed="20.00" duration="38.00" routeLength="509.40" waitingTime="0.00" waitingCount="0" stopTime="0.00" timeLoss="12.43" rerouteNo="0" devices="tripinfo_N2S_33" vType="ego_car" speedFactor="1.01" vaporized=""/>
    <tripinfo id="S2N_31" depart="384.00" departLane="SN_0" departPos="5.00" departSpeed="10.00" departDelay="6.00" arrival="426.00" arrivalLane="-NS_0" arrivalPos="250.00" arrivalSpeed="20.00" duration="42.00" routeLength="509.40" waitingTime="0.00" waitingCount="0" stopTime="0.00" timeLoss="16.21" rerouteNo="0" devices="tripinfo_S2N_31" vType="ego_car" speedFactor="1.18" vaporized=""/>
    <tripinfo id="N2S_34" depart="390.00" departLane="NS_0" departPos="5.00" departSpeed="10.00" departDelay="2.00" arrival="427.00" arrivalLane="-SN_0" arrivalPos="250.00" arrivalSpeed="20.00" duration="37.00" routeLength="509.40" waitingTime="0.00" waitingCount="0" stopTime="0.00" timeLoss="11.21" rerouteNo="0" devices="tripinfo_N2S_34" vType="ego_car" speedFactor="1.17" vaporized=""/>
    <tripinfo id="N2S_35" depart="412.00" departLane="NS_0" departPos="5.00" departSpeed="10.00" departDelay="0.00" arrival="449.00" arrivalLane="-SN_0" arrivalPos="250.00" arrivalSpeed="19.90" duration="37.00" routeLength="509.40" waitingTime="0.00" waitingCount="0" stopTime="0.00" timeLoss="10.61" rerouteNo="0" devices="tripinfo_N2S_35" vType="ego_car" speedFactor="0.99" vaporized=""/>
    <tripinfo id="N2S_36" depart="415.00" departLane="NS_0" departPos="5.00" departSpeed="10.00" departDelay="3.00" arrival="451.00" arrivalLane="-SN_0" arrivalPos="250.00" arrivalSpeed="20.00" duration="36.00" routeLength="509.40" waitingTime="0.00" waitingCount="0" stopTime="0.00" timeLoss="10.18" rerouteNo="0" devices="tripinfo_N2S_36" vType="ego_car" speedFactor="1.02" vaporized=""/>
    <tripinfo id="W2E_37" depart="415.00" departLane="WE_0" departPos="5.00" departSpeed="10.00" departDelay="0.00" arrival="464.00" arrivalLane="-EW_0" arrivalPos="250.00" arrivalSpeed="19.46" duration="49.00" routeLength="509.40" waitingTime="0.00" waitingCount="0" stopTime="0.00" timeLoss="22.26" rerouteNo="0" devices="tripinfo_W2E_37" vType="ego_car" speedFactor="0.97" vaporized=""/>
    <tripinfo id="E2W_38" depart="416.00" departLane="EW_0" departPos="5.00" departSpeed="10.00" departDelay="0.00" arrival="465.00" arrivalLane="-WE_0" arrivalPos="250.00" arrivalSpeed="20.00" duration="49.00" routeLength="509.40" waitingTime="0.00" waitingCount="0" stopTime="0.00" timeLoss="22.59" rerouteNo="0" devices="tripinfo_E2W_38" vType="ego_car" speedFactor="1.18" vaporized=""/>
    <tripinfo id="E2W_44" depart="449.00" departLane="EW_0" departPos="5.00" departSpeed="10.00" departDelay="0.00" arrival="479.00" arrivalLane="-WE_0" arrivalPos="250.00" arrivalSpeed="20.00" duration="30.00" routeLength="509.40" waitingTime="0.00" waitingCount="0" stopTime="0.00" timeLoss="3.56" rerouteNo="0" devices="tripinfo_E2W_44" vType="ego_car" speedFactor="1.04" vaporized=""/>
    <tripinfo id="E2W_45" depart="454.00" departLane="EW_0" departPos="5.00" departSpeed="10.00" departDelay="0.00" arrival="482.00" arrivalLane="-WE_0" arrivalPos="250.00" arrivalSpeed="20.00" duration="28.00" routeLength="509.40" waitingTime="0.00" waitingCount="0" stopTime="0.00" timeLoss="1.55" rerouteNo="0" devices="tripinfo_E2W_45" vType="ego_car" speedFactor="1.04" vaporized=""/>
    <tripinfo id="N2S_39" depart="424.00" departLane="NS_0" departPos="5.00" departSpeed="10.00" departDelay="0.00" arrival="492.00" arrivalLane="-SN_0" arrivalPos="250.00" arrivalSpeed="20.00" duration="68.00" routeLength="509.40" waitingTime="34.00" waitingCount="1" stopTime="0.00" timeLoss="41.77" rerouteNo="0" devices="tripinfo_N2S_39" vType="ego_car" speedFactor="1.10" vaporized=""/>
    <tripinfo id="N2S_40" depart="426.00" departLane="NS_0" departPos="5.00" departSpeed="10.00" departDelay="0.00" arrival="495.00" arrivalLane="-SN_0" arrivalPos="250.00" arrivalSpeed="18.01" duration="69.00" routeLength="509.40" waitingTime="0.00" waitingCount="0" stopTime="0.00" timeLoss="39.91" rerouteNo="0" devices="tripinfo_N2S_40" vType="ego_car" speedFactor="0.90" vaporized=""/>
    <tripinfo id="N2S_42" depart="435.00" departLane="NS_0" departPos="5.00" departSpeed="10.00" departDelay="0.00" arrival="496.00" arrivalLane="-SN_0" arrivalPos="250.00" arrivalSpeed="19.14" duration="61.00" routeLength="509.40" waitingTime="0.00" waitingCount="0" stopTime="0.00" timeLoss="34.34" rerouteNo="0" devices="tripinfo_N2S_42" vType="ego_car" speedFactor="0.96" vaporized=""/>
    <tripinfo id="S2N_41" depart="429.00" departLane="SN_0" departPos="5.00" departSpeed="10.00" departDelay="0.00" arrival="498.00" arrivalLane="-NS_0" arrivalPos="250.00" arrivalSpeed="20.00" duration="69.00" routeLength="509.40" waitingTime="0.00" waitingCount="0" stopTime="0.00" timeLoss="43.18" rerouteNo="0" devices="tripinfo_S2N_41" vType="ego_car" speedFactor="1.03" vaporized=""/>
    <tripinfo id="N2S_43" depart="438.00" departLane="NS_0" departPos="5.00" departSpeed="10.00" departDelay="0.00" arrival="498.00" arrivalLane="-SN_0" arrivalPos="250.00" arrivalSpeed="20.00" duration="60.00" routeLength="509.40" waitingTime="0.00" waitingCount="0" stopTime="0.00" timeLoss="34.17" rerouteNo="0" devices="tripinfo_N2S_43" vType="ego_car" speedFactor="1.09" vaporized=""/>
    <tripinfo id="N2S_46" depart="456.00" departLane="NS_0" departPos="5.00" departSpeed="10.00" departDelay="0.00" arrival="500.00" arrivalLane="-SN_0" arrivalPos="250.00" arrivalSpeed="20.00" duration="44.00" routeLength="509.40" waitingTime="0.00" waitingCount="0" stopTime="0.00" timeLoss="17.91" rerouteNo="0" devices="tripinfo_N2S_46" vType="ego_car" speedFactor="1.09" vaporized=""/>
    <tripinfo id="S2N_48" depart="477.00" departLane="SN_0" departPos="5.00" departSpeed="10.00" departDelay="0.00" arrival="507.00" arrivalLane="-NS_0" arrivalPos="250.00" arrivalSpeed="18.01" duration="30.00" routeLength="509.40" waitingTime="0.00" waitingCount="0" stopTime="0.00" timeLoss="0.82" rerouteNo="0" devices="tripinfo_S2N_48" vType="ego_car" speedFactor="0.90" vaporized=""/>
    <tripinfo id="S2N_49" depart="479.00" departLane="SN_0" departPos="5.00" departSpeed="10.00" departDelay="1.00" arrival="509.00" arrivalLane="-NS_0" arrivalPos="250.00" arrivalSpeed="17.54" duration="30.00" routeLength="509.40" waitingTime="0.00" waitingCount="0" stopTime="0.00" timeLoss="0.62" rerouteNo="0" devices="tripinfo_S2N_49" vType="ego_car" speedFactor="0.88" vaporized=""/>
    <tripinfo id="W2E_47" depart="475.00" departLane="WE_0" departPos="5.00" departSpeed="10.00" departDelay="0.00" arrival="525.00" arrivalLane="-EW_0" arrivalPos="250.00" arrivalSpeed="19.95" duration="50.00" routeLength="509.40" waitingTime="0.00" waitingCount="0" stopTime="0.00" timeLoss="24.14" rerouteNo="0" devices="tripinfo_W2E_47" vType="ego_car" speedFactor="1.00" vaporized=""/>
    <tripinfo id="W2E_50" depart="481.00" departLane="WE_0" departPos="5.00" departSpeed="10.00" departDelay="2.00" arrival="529.00" arrivalLane="-EW_0" arrivalPos="250.00" arrivalSpeed="17.01" duration="48.00" routeLength="509.40" waitingTime="0.00" waitingCount="0" stopTime="0.00" timeLoss="17.48" rerouteNo="0" devices="tripinfo_W2E_50" vType="ego_car" speedFactor="0.85" vaporized=""/>
    <tripinfo id="W2E_53" depart="500.00" departLane="WE_0" departPos="5.00" departSpeed="10.00" departDelay="0.00" arrival="531.00" arrivalLane="-EW_0" arrivalPos="250.00" arrivalSpeed="20.00" duration="31.00" routeLength="509.40" waitingTime="0.00" waitingCount="0" stopTime="0.00" timeLoss="4.64" rerouteNo="0" devices="tripinfo_W2E_53" vType="ego_car" speedFactor="1.02" vaporized=""/>
    <tripinfo id="W2E_55" depart="510.00" departLane="WE_0" departPos="5.00" departSpeed="10.00" departDelay="0.00" arrival="544.00" arrivalLane="-EW_0" arrivalPos="250.00" arrivalSpeed="20.00" duration="34.00" routeLength="509.40" waitingTime="0.00" waitingCount="0" stopTime="0.00" timeLoss="8.34" rerouteNo="0" devices="tripinfo_W2E_55" vType="ego_car" speedFactor="1.00" vaporized=""/>
    <tripinfo id="N2S_51" depart="489.00" departLane="NS_0" departPos="5.00" departSpeed="10.00" departDelay="0.00" arrival="561.00" arrivalLane="-SN_0" arrivalPos="250.00" arrivalSpeed="17.10" duration="72.00" routeLength="509.40" waitingTime="33.00" waitingCount="1" stopTime="0.00" timeLoss="42.14" rerouteNo="0" devices="tripinfo_N2S_51" vType="ego_car" speedFactor="0.85" vaporized=""/>
    <tripinfo id="N2S_52" depart="491.00" departLane="NS_0" departPos="5.00" departSpeed="10.00" departDelay="0.00" arrival="563.00" arrivalLane="-SN_0" arrivalPos="250.00" arrivalSpeed="20.00" duration="72.00" routeLength="509.40" waitingTime="26.00" waitingCount="2" stopTime="0.00" timeLoss="46.10" rerouteNo="0" devices="tripinfo_N2S_52" vType="ego_car" speedFactor="1.17" vaporized=""/>
    <tripinfo id="S2N_54" depart="502.00" departLane="SN_0" departPos="5.00" departSpeed="10.00" departDelay="0.00" arrival="565.00" arrivalLane="-NS_0" arrivalPos="250.00" arrivalSpeed="20.00" duration="63.00" routeLength="509.40" waitingTime="0.00" waitingCount="0" stopTime="0.00" timeLoss="36.90" rerouteNo="0" devices="tripinfo_S2N_54" vType="ego_car" speedFactor="1.10" vaporized=""/>
    <tripinfo id="N2S_57" depart="528.00" departLane="NS_0" departPos="5.00" departSpeed="10.00" departDelay="0.00" arrival="565.00" arrivalLane="-SN_0" arrivalPos="250.00" arrivalSpeed="17.98" duration="37.00" routeLength="509.40" waitingTime="0.00" waitingCount="0" stopTime="0.00" timeLoss="8.21" rerouteNo="0" devices="tripinfo_N2S_57" vType="ego_car" speedFactor="0.90" vaporized=""/>
    <tripinfo id="S2N_56" depart="510.00" departLane="SN_0" departPos="5.00" departSpeed="10.00" departDelay="0.00" arrival="567.00" arrivalLane="-NS_0" arrivalPos="250.00" arrivalSpeed="19.92" duration="57.00" routeLength="509.40" waitingTime="0.00" waitingCount="0" stopTime="0.00" timeLoss="30.58" rerouteNo="0" devices="tripinfo_S2N_56" vType="ego_car" speedFactor="1.00" vaporized=""/>
    <tripinfo id="N2S_59" depart="537.00" departLane="NS_0" departPos="5.00" departSpeed="10.00" departDelay="0.00" arrival="567.00" arrivalLane="-SN_0" arrivalPos="250.00" arrivalSpeed="20.00" duration="30.00" routeLength="509.40" waitingTime="0.00" waitingCount="0" stopTime="0.00" timeLoss="3.83" rerouteNo="0" devices="tripinfo_N2S_59" vType="ego_car" speedFactor="1.02" vaporized=""/>
    <tripinfo id="S2N_58" depart="534.00" departLane="SN_0" departPos="5.00" departSpeed="10.00" departDelay="0.00" arrival="568.00" arrivalLane="-NS_0" arrivalPos="250.00" arrivalSpeed="20.00" duration="34.00" routeLength="509.40" waitingTime="0.00" waitingCount="0" stopTime="0.00" timeLoss="8.46" rerouteNo="0" devices="tripinfo_S2N_58" vType="ego_car" speedFactor="1.14" vaporized=""/>
    <tripinfo id="S2N_60" depart="539.00" departLane="SN_0" departPos="5.00" departSpeed="10.00" departDelay="0.00" arrival="571.00" arrivalLane="-NS_0" arrivalPos="250.00" arrivalSpeed="19.39" duration="32.00" routeLength="509.40" waitingTime="0.00" waitingCount="0" stopTime="0.00" timeLoss="5.07" rerouteNo="0" devices="tripinfo_S2N_60" vType="ego_car" speedFactor="0.97" vaporized=""/>
    <tripinfo id="S2N_62" depart="553.00" departLane="SN_0" departPos="5.00" departSpeed="10.00" departDelay="0.00" arrival="589.00" arrivalLane="-NS_0" arrivalPos="250.00" arrivalSpeed="20.00" duration="36.00" routeLength="509.40" waitingTime="0.00" waitingCount="0" stopTime="0.00" timeLoss="10.05" rerouteNo="0" devices="tripinfo_S2N_62" vType="ego_car" speedFactor="1.12" vaporized=""/>
    <tripinfo id="E2W_61" depart="547.00" departLane="EW_0" departPos="5.00" departSpeed="10.00" departDelay="0.00" arrival="593.00" arrivalLane="-WE_0" arrivalPos="250.00" arrivalSpeed="20.00" duration="46.00" routeLength="509.40" waitingTime="0.00" waitingCount="0" stopTime="0.00" timeLoss="20.37" rerouteNo="0" devices="tripinfo_E2W_61" vType="ego_car" speedFactor="1.08" vaporized=""/>
    <tripinfo id="E2W_64" depart="565.00" departLane="EW_0" departPos="5.00" departSpeed="10.00" departDelay="0.00" arrival="595.00" arrivalLane="-WE_0" arrivalPos="250.00" arrivalSpeed="19.74" duration="30.00" routeLength="509.40" waitingTime="0.00" waitingCount="0" stopTime="0.00" timeLoss="4.05" rerouteNo="0" devices="tripinfo_E2W_64" vType="ego_car" speedFactor="0.99" vaporized=""/>
    <tripinfo id="W2E_65" depart="566.00" departLane="WE_0" departPos="5.00" departSpeed="10.00" departDelay="0.00" arrival="595.00" arrivalLane="-EW_0" arrivalPos="250.00" arrivalSpeed="18.75" duration="29.00" routeLength="509.40" waitingTime="0.00" waitingCount="0" stopTime="0.00" timeLoss="1.44" rerouteNo="0" devices="tripinfo_W2E_65" vType="ego_car" speedFactor="0.94" vaporized=""/>
    <tripinfo id="E2W_69" depart="580.00" departLane="EW_0" departPos="5.00" departSpeed="10.00" departDelay="0.00" arrival="614.00" arrivalLane="-WE_0" arrivalPos="250.00" arrivalSpeed="20.00" duration="34.00" routeLength="509.40" waitingTime="0.00" waitingCount="0" stopTime="0.00" timeLoss="8.37" rerouteNo="0" devices="tripinfo_E2W_69" vType="ego_car" speedFactor="1.04" vaporized=""/>
    <tripinfo id="W2E_71" depart="589.00" departLane="WE_0" departPos="5.00" departSpeed="10.00" departDelay="0.00" arrival="618.00" arrivalLane="-EW_0" arrivalPos="250.00" arrivalSpeed="20.00" duration="29.00" routeLength="509.40" waitingTime="0.00" waitingCount="0" stopTime="0.00" timeLoss="3.28" rerouteNo="0" devices="tripinfo_W2E_71" vType="ego_car" speedFactor="1.02" vaporized=""/>
    <tripinfo id="N2S_63" depart="563.00" departLane="NS_0" departPos="5.00" departSpeed="10.00" departDelay="0.00" arrival="628.00" arrivalLane="-SN_0" arrivalPos="250.00" arrivalSpeed="20.00" duration="65.00" routeLength="509.40" waitingTime="31.00" waitingCount="1" stopTime="0.00" timeLoss="38.69" rerouteNo="0" devices="tripinfo_N2S_63" vType="ego_car" speedFactor="1.02" vaporized=""/>
    <tripinfo id="S2N_66" depart="568.00" departLane="SN_0" departPos="5.00" departSpeed="10.00" departDelay="0.00" arrival="628.00" arrivalLane="-NS_0" arrivalPos="250.00" arrivalSpeed="17.65" duration="60.00" routeLength="509.40" waitingTime="1.00" waitingCount="1" stopTime="0.00" timeLoss="31.12" rerouteNo="0" devices="tripinfo_S2N_66" vType="ego_car" speedFactor="0.88" vaporized=""/>
    <tripinfo id="S2N_67" depart="579.00" departLane="SN_0" departPos="5.00" departSpeed="10.00" departDelay="8.00" arrival="630.00" arrivalLane="-NS_0" arrivalPos="250.00" arrivalSpeed="18.14" duration="51.00" routeLength="509.40" waitingTime="0.00" waitingCount="0" stopTime="0.00" timeLoss="22.68" rerouteNo="0" devices="tripinfo_S2N_67" vType="ego_car" speedFactor="0.91" vaporized=""/>
    <tripinfo id="N2S_68" depart="576.00" departLane="NS_0" departPos="5.00" departSpeed="10.00" departDelay="0.00" arrival="630.00" arrivalLane="-SN_0" arrivalPos="250.00" arrivalSpeed="18.29" duration="54.00" routeLength="509.40" waitingTime="0.00" waitingCount="0" stopTime="0.00" timeLoss="26.00" rerouteNo="0" devices="tripinfo_N2S_68" vType="ego_car" speedFactor="0.91" vaporized=""/>
    <tripinfo id="N2S_70" depart="581.00" departLane="NS_0" departPos="5.00" departSpeed="10.00" departDelay="1.00" arrival="632.00" arrivalLane="-SN_0" arrivalPos="250.00" arrivalSpeed="20.00" duration="51.00" routeLength="509.40" waitingTime="0.00" waitingCount="0" stopTime="0.00" timeLoss="25.03" rerouteNo="0" devices="tripinfo_N2S_70" vType="ego_car" speedFactor="1.02" vaporized=""/>
    <tripinfo id="S2N_72" depart="594.00" departLane="SN_0" departPos="5.00" departSpeed="10.00" departDelay="0.00" arrival="632.00" arrivalLane="-NS_0" arrivalPos="250.00" arrivalSpeed="19.46" duration="38.00" routeLength="509.40" waitingTime="0.00" waitingCount="0" stopTime="0.00" timeLoss="11.28" rerouteNo="0" devices="tripinfo_S2N_72" vType="ego_car" speedFactor="0.97" vaporized=""/>
    <tripinfo id="S2N_73" depart="597.00" departLane="SN_0" departPos="5.00" departSpeed="10.00" departDelay="2.00" arrival="634.00" arrivalLane="-NS_0" arrivalPos="250.00" arrivalSpeed="18.80" duration="37.00" routeLength="509.40" waitingTime="0.00" waitingCount="0" stopTime="0.00" timeLoss="9.21" rerouteNo="0" devices="tripinfo_S2N_73" vType="ego_car" speedFactor="0.94" vaporized=""/>