<?xml version="1.0" encoding="UTF-8"?>

<!-- generated on 2023-04-06 09:20:22 by Eclipse SUMO sumo Version 1.13.0
<configuration xmlns:xsi="http://www.w3.org/2001/XMLSchema-instance" xsi:noNamespaceSchemaLocation="http://sumo.dlr.de/xsd/sumoConfiguration.xsd">

    <input>
        <net-file value="/home/yuwz/tmp/graduation_design/rou_net/intersection.net.xml"/>
        <route-files value="/home/yuwz/tmp/graduation_design/rou_net/intersection10.rou.xml"/>
    </input>

    <output>
        <tripinfo-output value="/home/yuwz/tmp/graduation_design/rou_net/tripinfo.xml"/>
    </output>

    <time>
        <begin value="0"/>
        <end value="3600"/>
        <step-length value="1"/>
    </time>

    <processing>
        <waiting-time-memory value="3600"/>
    </processing>

    <report>
        <no-step-log value="true"/>
    </report>

    <traci_server>
        <remote-port value="53143"/>
    </traci_server>

    <gui_only>
        <tracker-interval value="1"/>
    </gui_only>

</configuration>
-->

<tripinfos xmlns:xsi="http://www.w3.org/2001/XMLSchema-instance" xsi:noNamespaceSchemaLocation="http://sumo.dlr.de/xsd/tripinfo_file.xsd">
    <tripinfo id="S2N_1" depart="32.00" departLane="SN_0" departPos="5.00" departSpeed="10.00" departDelay="0.00" arrival="84.00" arrivalLane="-NS_0" arrivalPos="250.00" arrivalSpeed="20.00" duration="52.00" routeLength="509.40" waitingTime="3.00" waitingCount="1" stopTime="0.00" timeLoss="25.95" rerouteNo="0" devices="tripinfo_S2N_1" vType="ego_car" speedFactor="1.06" vaporized=""/>
    <tripinfo id="N2S_3" depart="103.00" departLane="NS_0" departPos="5.00" departSpeed="10.00" departDelay="0.00" arrival="152.00" arrivalLane="-SN_0" arrivalPos="250.00" arrivalSpeed="20.00" duration="49.00" routeLength="509.40" waitingTime="6.00" waitingCount="1" stopTime="0.00" timeLoss="22.98" rerouteNo="0" devices="tripinfo_N2S_3" vType="ego_car" speedFactor="1.01" vaporized=""/>
    <tripinfo id="S2N_2" depart="101.00" departLane="SN_0" departPos="5.00" departSpeed="10.00" departDelay="0.00" arrival="153.00" arrivalLane="-NS_0" arrivalPos="250.00" arrivalSpeed="18.77" duration="52.00" routeLength="509.40" waitingTime="6.00" waitingCount="1" stopTime="0.00" timeLoss="24.10" rerouteNo="0" devices="tripinfo_S2N_2" vType="ego_car" speedFactor="0.94" vaporized=""/>
    <tripinfo id="N2S_5" depart="145.00" departLane="NS_0" departPos="5.00" departSpeed="10.00" departDelay="0.00" arrival="172.00" arrivalLane="-SN_0" arrivalPos="250.00" arrivalSpeed="20.00" duration="27.00" routeLength="509.40" waitingTime="0.00" waitingCount="0" stopTime="0.00" timeLoss="1.00" rerouteNo="0" devices="tripinfo_N2S_5" vType="ego_car" speedFactor="1.03" vaporized=""/>
    <tripinfo id="W2E_4" depart="125.00" departLane="WE_0" departPos="5.00" departSpeed="10.00" departDelay="0.00" arrival="186.00" arrivalLane="-EW_0" arrivalPos="250.00" arrivalSpeed="20.00" duration="61.00" routeLength="509.40" waitingTime="27.00" waitingCount="1" stopTime="0.00" timeLoss="35.20" rerouteNo="0" devices="tripinfo_W2E_4" vType="ego_car" speedFactor="1.08" vaporized=""/>
    <tripinfo id="W2E_6" depart="183.00" departLane="WE_0" departPos="5.00" departSpeed="10.00" departDelay="0.00" arrival="215.00" arrivalLane="-EW_0" arrivalPos="250.00" arrivalSpeed="16.62" duration="32.00" routeLength="509.40" waitingTime="0.00" waitingCount="0" stopTime="0.00" timeLoss="0.86" rerouteNo="0" devices="tripinfo_W2E_6" vType="ego_car" speedFactor="0.83" vaporized=""/>
    <tripinfo id="N2S_7" depart="197.00" departLane="NS_0" departPos="5.00" departSpeed="10.00" departDelay="0.00" arrival="224.00" arrivalLane="-SN_0" arrivalPos="250.00" arrivalSpeed="20.00" duration="27.00" routeLength="509.40" waitingTime="0.00" waitingCount="0" stopTime="0.00" timeLoss="1.10" rerouteNo="0" devices="tripinfo_N2S_7" vType="ego_car" speedFactor="1.05" vaporized=""/>
    <tripinfo id="N2S_8" depart="211.00" departLane="NS_0" departPos="5.00" departSpeed="10.00" departDelay="0.00" arrival="241.00" arrivalLane="-SN_0" arrivalPos="250.00" arrivalSpeed="17.72" duration="30.00" routeLength="509.40" waitingTime="0.00" waitingCount="0" stopTime="0.00" timeLoss="0.76" rerouteNo="0" devices="tripinfo_N2S_8" vType="ego_car" speedFactor="0.89" vaporized=""/>
    <tripinfo id="N2S_10" depart="219.00" departLane="NS_0" departPos="5.00" departSpeed="10.00" departDelay="0.00" arrival="250.00" arrivalLane="-SN_0" arrivalPos="250.00" arrivalSpeed="17.14" duration="31.00" routeLength="509.40" waitingTime="0.00" waitingCount="0" stopTime="0.00" timeLoss="0.67" rerouteNo="0" devices="tripinfo_N2S_10" vType="ego_car" speedFactor="0.86" vaporized=""/>
    <tripinfo id="E2W_12" depart="225.00" departLane="EW_0" departPos="5.00" departSpeed="10.00" departDelay="0.00" arrival="253.00" arrivalLane="-WE_0" arrivalPos="250.00" arrivalSpeed="20.00" duration="28.00" routeLength="509.40" waitingTime="0.00" waitingCount="0" stopTime="0.00" timeLoss="1.95" rerouteNo="0" devices="tripinfo_E2W_12" vType="ego_car" speedFactor="1.03" vaporized=""/>
    <tripinfo id="W2E_9" depart="214.00" departLane="WE_0" departPos="5.00" departSpeed="10.00" departDelay="0.00" arrival="255.00" arrivalLane="-EW_0" arrivalPos="250.00" arrivalSpeed="18.76" duration="41.00" routeLength="509.40" waitingTime="5.00" waitingCount="1" stopTime="0.00" timeLoss="12.95" rerouteNo="0" devices="tripinfo_W2E_9" vType="ego_car" speedFactor="0.94" vaporized=""/>
    <tripinfo id="W2E_11" depart="222.00" departLane="WE_0" departPos="5.00" departSpeed="10.00" departDelay="0.00" arrival="257.00" arrivalLane="-EW_0" arrivalPos="250.00" arrivalSpeed="20.00" duration="35.00" routeLength="509.40" waitingTime="0.00" waitingCount="0" stopTime="0.00" timeLoss="8.59" rerouteNo="0" devices="tripinfo_W2E_11" vType="ego_car" speedFactor="1.09" vaporized=""/>
    <tripinfo id="W2E_13" depart="229.00" departLane="WE_0" departPos="5.00" departSpeed="10.00" departDelay="0.00" arrival="259.00" arrivalLane="-EW_0" arrivalPos="250.00" arrivalSpeed="20.00" duration="30.00" routeLength="509.40" waitingTime="0.00" waitingCount="0" stopTime="0.00" timeLoss="3.65" rerouteNo="0" devices="tripinfo_W2E_13" vType="ego_car" speedFactor="1.05" vaporized=""/>
    <tripinfo id="W2E_15" depart="252.00" departLane="WE_0" departPos="5.00" departSpeed="10.00" departDelay="0.00" arrival="279.00" arrivalLane="-EW_0" arrivalPos="250.00" arrivalSpeed="19.82" duration="27.00" routeLength="509.40" waitingTime="0.00" waitingCount="0" stopTime="0.00" timeLoss="0.97" rerouteNo="0" devices="tripinfo_W2E_15" vType="ego_car" speedFactor="0.99" vaporized=""/>
    <tripinfo id="N2S_14" depart="251.00" departLane="NS_0" departPos="5.00" departSpeed="10.00" departDelay="0.00" arrival="288.00" arrivalLane="-SN_0" arrivalPos="250.00" arrivalSpeed="20.00" duration="37.00" routeLength="509.40" waitingTime="3.00" waitingCount="1" stopTime="0.00" timeLoss="10.95" rerouteNo="0" devices="tripinfo_N2S_14" vType="ego_car" speedFactor="1.12" vaporized=""/>
    <tripinfo id="S2N_16" depart="253.00" departLane="SN_0" departPos="5.00" departSpeed="10.00" departDelay="0.00" arrival="289.00" arrivalLane="-NS_0" arrivalPos="250.00" arrivalSpeed="18.54" duration="36.00" routeLength="509.40" waitingTime="1.00" waitingCount="1" stopTime="0.00" timeLoss="7.82" rerouteNo="0" devices="tripinfo_S2N_16" vType="ego_car" speedFactor="0.93" vaporized=""/>
    <tripinfo id="E2W_17" depart="278.00" departLane="EW_0" departPos="5.00" departSpeed="10.00" departDelay="0.00" arrival="323.00" arrivalLane="-WE_0" arrivalPos="250.00" arrivalSpeed="17.57" duration="45.00" routeLength="509.40" waitingTime="9.00" waitingCount="1" stopTime="0.00" timeLoss="16.00" rerouteNo="0" devices="tripinfo_E2W_17" vType="ego_car" speedFactor="0.88" vaporized=""/>
    <tripinfo id="W2E_21" depart="298.00" departLane="WE_0" departPos="5.00" departSpeed="10.00" departDelay="0.00" arrival="325.00" arrivalLane="-EW_0" arrivalPos="250.00" arrivalSpeed="20.00" duration="27.00" routeLength="509.40" waitingTime="0.00" waitingCount="0" stopTime="0.00" timeLoss="1.20" rerouteNo="0" devices="tripinfo_W2E_21" vType="ego_car" speedFactor="1.02" vaporized=""/>
    <tripinfo id="E2W_19" depart="291.00" departLane="EW_0" departPos="5.00" departSpeed="10.00" departDelay="0.00" arrival="326.00" arrivalLane="-WE_0" arrivalPos="250.00" arrivalSpeed="18.72" duration="35.00" routeLength="509.40" waitingTime="0.00" waitingCount="0" stopTime="0.00" timeLoss="6.82" rerouteNo="0" devices="tripinfo_E2W_19" vType="ego_car" speedFactor="0.94" vaporized=""/>
    <tripinfo id="E2W_20" depart="298.00" departLane="EW_0" departPos="5.00" departSpeed="10.00" departDelay="0.00" arrival="328.00" arrivalLane="-WE_0" arrivalPos="250.00" arrivalSpeed="20.00" duration="30.00" routeLength="509.40" waitingTime="0.00" waitingCount="0" stopTime="0.00" timeLoss="3.54" rerouteNo="0" devices="tripinfo_E2W_20" vType="ego_car" speedFactor="1.16" vaporized=""/>
    <tripinfo id="E2W_23" depart="303.00" departLane="EW_0" departPos="5.00" departSpeed="10.00" departDelay="0.00" arrival="331.00" arrivalLane="-WE_0" arrivalPos="250.00" arrivalSpeed="19.50" duration="28.00" routeLength="509.40" waitingTime="0.00" waitingCount="0" stopTime="0.00" timeLoss="1.35" rerouteNo="0" devices="tripinfo_E2W_23" vType="ego_car" speedFactor="0.97" vaporized=""/>
    <tripinfo id="W2E_29" depart="317.00" departLane="WE_0" departPos="5.00" departSpeed="10.00" departDelay="0.00" arrival="344.00" arrivalLane="-EW_0" arrivalPos="250.00" arrivalSpeed="20.00" duration="27.00" routeLength="509.40" waitingTime="0.00" waitingCount="0" stopTime="0.00" timeLoss="1.00" rerouteNo="0" devices="tripinfo_W2E_29" vType="ego_car" speedFactor="1.13" vaporized=""/>
    <tripinfo id="S2N_22" depart="299.00" departLane="SN_0" departPos="5.00" departSpeed="10.00" departDelay="0.00" arrival="356.00" arrivalLane="-NS_0" arrivalPos="250.00" arrivalSpeed="20.00" duration="57.00" routeLength="509.40" waitingTime="23.00" waitingCount="1" stopTime="0.00" timeLoss="30.95" rerouteNo="0" devices="tripinfo_S2N_22" vType="ego_car" speedFactor="1.01" vaporized=""/>
    <tripinfo id="N2S_18" depart="290.00" departLane="NS_0" departPos="5.00" departSpeed="10.00" departDelay="0.00" arrival="357.00" arrivalLane="-SN_0" arrivalPos="250.00" arrivalSpeed="18.83" duration="67.00" routeLength="509.40" waitingTime="32.00" waitingCount="1" stopTime="0.00" timeLoss="39.01" rerouteNo="0" devices="tripinfo_N2S_18" vType="ego_car" speedFactor="0.94" vaporized=""/>
    <tripinfo id="S2N_24" depart="304.00" departLane="SN_0" departPos="5.00" departSpeed="10.00" departDelay="0.00" arrival="360.00" arrivalLane="-NS_0" arrivalPos="250.00" arrivalSpeed="17.79" duration="56.00" routeLength="509.40" waitingTime="0.00" waitingCount="0" stopTime="0.00" timeLoss="26.67" rerouteNo="0" devices="tripinfo_S2N_24" vType="ego_car" speedFactor="0.89" vaporized=""/>
    <tripinfo id="N2S_25" depart="309.00" departLane="NS_0" departPos="5.00" departSpeed="10.00" departDelay="0.00" arrival="361.00" arrivalLane="-SN_0" arrivalPos="250.00" arrivalSpeed="16.51" duration="52.00" routeLength="509.40" waitingTime="0.00" waitingCount="0" stopTime="0.00" timeLoss="20.55" rerouteNo="0" devices="tripinfo_N2S_25" vType="ego_car" speedFactor="0.83" vaporized=""/>
    <tripinfo id="S2N_26" depart="312.00" departLane="SN_0" departPos="5.00" departSpeed="10.00" departDelay="0.00" arrival="362.00" arrivalLane="-NS_0" arrivalPos="250.00" arrivalSpeed="17.45" duration="50.00" routeLength="509.40" waitingTime="0.00" waitingCount="0" stopTime="0.00" timeLoss="20.25" rerouteNo="0" devices="tripinfo_S2N_26" vType="ego_car" speedFactor="0.87" vaporized=""/>
    <tripinfo id="N2S_27" depart="315.00" departLane="NS_0" departPos="5.00" departSpeed="10.00" departDelay="3.00" arrival="363.00" arrivalLane="-SN_0" arrivalPos="250.00" arrivalSpeed="18.34" duration="48.00" routeLength="509.40" waitingTime="0.00" waitingCount="0" stopTime="0.00" timeLoss="19.36" rerouteNo="0" devices="tripinfo_N2S_27" vType="ego_car" speedFactor="0.92" vaporized=""/>
    <tripinfo id="N2S_28" depart="320.00" departLane="NS_0" departPos="5.00" departSpeed="10.00" departDelay="5.00" arrival="364.00" arrivalLane="-SN_0" arrivalPos="250.00" arrivalSpeed="18.98" duration="44.00" routeLength="509.40" waitingTime="0.00" waitingCount="0" stopTime="0.00" timeLoss="17.04" rerouteNo="0" devices="tripinfo_N2S_28" vType="ego_car" speedFactor="0.95" vaporized=""/>
    <tripinfo id="N2S_33" depart="339.00" departLane="NS_0" departPos="5.00" departSpeed="10.00" departDelay="0.00" arrival="367.00" arrivalLane="-SN_0" arrivalPos="250.00" arrivalSpeed="20.00" duration="28.00" routeLength="509.40" waitingTime="0.00" waitingCount="0" stopTime="0.00" timeLoss="1.54" rerouteNo="0" devices="tripinfo_N2S_33" vType="ego_car" speedFactor="1.01" vaporized=""/>
    <tripinfo id="W2E_30" depart="324.00" departLane="WE_0" departPos="5.00" departSpeed="10.00" departDelay="0.00" arrival="391.00" arrivalLane="-EW_0" arrivalPos="250.00" arrivalSpeed="18.63" duration="67.00" routeLength="509.40" waitingTime="32.00" waitingCount="1" stopTime="0.00" timeLoss="38.84" rerouteNo="0" devices="tripinfo_W2E_30" vType="ego_car" speedFactor="0.93" vaporized=""/>
    <tripinfo id="W2E_31" depart="331.00" departLane="WE_0" departPos="5.00" departSpeed="10.00" departDelay="0.00" arrival="394.00" arrivalLane="-EW_0" arrivalPos="250.00" arrivalSpeed="20.00" duration="63.00" routeLength="509.40" waitingTime="24.00" waitingCount="1" stopTime="0.00" timeLoss="37.13" rerouteNo="0" devices="tripinfo_W2E_31" vType="ego_car" speedFactor="1.18" vaporized=""/>
    <tripinfo id="W2E_32" depart="336.00" departLane="WE_0" departPos="5.00" departSpeed="10.00" departDelay="0.00" arrival="397.00" arrivalLane="-EW_0" arrivalPos="250.00" arrivalSpeed="20.00" duration="61.00" routeLength="509.40" waitingTime="0.00" waitingCount="0" stopTime="0.00" timeLoss="35.35" rerouteNo="0" devices="tripinfo_W2E_32" vType="ego_car" speedFactor="1.15" vaporized=""/>
    <tripinfo id="W2E_34" depart="355.00" departLane="WE_0" departPos="5.00" departSpeed="10.00" departDelay="0.00" arrival="401.00" arrivalLane="-EW_0" arrivalPos="250.00" arrivalSpeed="20.00" duration="46.00" routeLength="509.40" waitingTime="0.00" waitingCount="0" stopTime="0.00" timeLoss="19.65" rerouteNo="0" devices="tripinfo_W2E_34" vType="ego_car" speedFactor="1.17" vaporized=""/>
    <tripinfo id="W2E_37" depart="375.00" departLane="WE_0" departPos="5.00" departSpeed="10.00" departDelay="0.00" arrival="404.00" arrivalLane="-EW_0" arrivalPos="250.00" arrivalSpeed="19.46" duration="29.00" routeLength="509.40" waitingTime="0.00" waitingCount="0" stopTime="0.00" timeLoss="2.43" rerouteNo="0" devices="tripinfo_W2E_37" vType="ego_car" speedFactor="0.97" vaporized=""/>
    <tripinfo id="N2S_35" depart="360.00" departLane="NS_0" departPos="5.00" departSpeed="10.00" departDelay="0.00" arrival="424.00" arrivalLane="-SN_0" arrivalPos="250.00" arrivalSpeed="19.90" duration="64.00" routeLength="509.40" waitingTime="30.00" waitingCount="1" stopTime="0.00" timeLoss="37.87" rerouteNo="0" devices="tripinfo_N2S_35" vType="ego_car" speedFactor="0.99" vaporized=""/>
    <tripinfo id="N2S_36" depart="374.00" departLane="NS_0" departPos="5.00" departSpeed="10.00" departDelay="0.00" arrival="426.00" arrivalLane="-SN_0" arrivalPos="250.00" arrivalSpeed="20.00" duration="52.00" routeLength="509.40" waitingTime="0.00" waitingCount="0" stopTime="0.00" timeLoss="26.40" rerouteNo="0" devices="tripinfo_N2S_36" vType="ego_car" speedFactor="1.02" vaporized=""/>
    <tripinfo id="N2S_41" depart="422.00" departLane="NS_0" departPos="5.00" departSpeed="10.00" departDelay="0.00" arrival="449.00" arrivalLane="-SN_0" arrivalPos="250.00" arrivalSpeed="20.00" duration="27.00" routeLength="509.40" waitingTime="0.00" waitingCount="0" stopTime="0.00" timeLoss="1.02" rerouteNo="0" devices="tripinfo_N2S_41" vType="ego_car" speedFactor="1.03" vaporized=""/>
    <tripinfo id="W2E_38" depart="403.00" departLane="WE_0" departPos="5.00" departSpeed="10.00" departDelay="0.00" arrival="458.00" arrivalLane="-EW_0" arrivalPos="250.00" arrivalSpeed="20.00" duration="55.00" routeLength="509.40" waitingTime="21.00" waitingCount="1" stopTime="0.00" timeLoss="29.09" rerouteNo="0" devices="tripinfo_W2E_38" vType="ego_car" speedFactor="1.18" vaporized=""/>
    <tripinfo id="E2W_39" depart="420.00" departLane="EW_0" departPos="5.00" departSpeed="10.00" departDelay="0.00" arrival="458.00" arrivalLane="-WE_0" arrivalPos="250.00" arrivalSpeed="20.00" duration="38.00" routeLength="509.40" waitingTime="4.00" waitingCount="1" stopTime="0.00" timeLoss="11.95" rerouteNo="0" devices="tripinfo_E2W_39" vType="ego_car" speedFactor="1.10" vaporized=""/>
    <tripinfo id="W2E_43" depart="427.00" departLane="WE_0" departPos="5.00" departSpeed="10.00" departDelay="0.00" arrival="461.00" arrivalLane="-EW_0" arrivalPos="250.00" arrivalSpeed="20.00" duration="34.00" routeLength="509.40" waitingTime="0.00" waitingCount="0" stopTime="0.00" timeLoss="7.64" rerouteNo="0" devices="tripinfo_W2E_43" vType="ego_car" speedFactor="1.09" vaporized=""/>
    <tripinfo id="E2W_40" depart="422.00" departLane="EW_0" departPos="5.00" departSpeed="10.00" departDelay="0.00" arrival="462.00" arrivalLane="-WE_0" arrivalPos="250.00" arrivalSpeed="18.01" duration="40.00" routeLength="509.40" waitingTime="0.00" waitingCount="0" stopTime="0.00" timeLoss="11.27" rerouteNo="0" devices="tripinfo_E2W_40" vType="ego_car" speedFactor="0.90" vaporized=""/>
    <tripinfo id="W2E_44" depart="429.00" departLane="WE_0" departPos="5.00" departSpeed="10.00" departDelay="2.00" arrival="463.00" arrivalLane="-EW_0" arrivalPos="250.00" arrivalSpeed="20.00" duration="34.00" routeLength="509.40" waitingTime="0.00" waitingCount="0" stopTime="0.00" timeLoss="7.63" rerouteNo="0" devices="tripinfo_W2E_44" vType="ego_car" speedFactor="1.04" vaporized=""/>
    <tripinfo id="E2W_42" depart="427.00" departLane="EW_0" departPos="5.00" departSpeed="10.00" departDelay="0.00" arrival="464.00" arrivalLane="-WE_0" arrivalPos="250.00" arrivalSpeed="19.14" duration="37.00" routeLength="509.40" waitingTime="0.00" waitingCount="0" stopTime="0.00" timeLoss="9.76" rerouteNo="0" devices="tripinfo_E2W_42" vType="ego_car" speedFactor="0.96" vaporized=""/>
    <tripinfo id="W2E_45" depart="431.00" departLane="WE_0" departPos="5.00" departSpeed="10.00" departDelay="4.00" arrival="465.00" arrivalLane="-EW_0" arrivalPos="250.00" arrivalSpeed="20.00" duration="34.00" routeLength="509.40" waitingTime="0.00" waitingCount="0" stopTime="0.00" timeLoss="7.61" rerouteNo="0" devices="tripinfo_W2E_45" vType="ego_car" speedFactor="1.04" vaporized=""/>
    <tripinfo id="W2E_46" depart="433.00" departLane="WE_0" departPos="5.00" departSpeed="10.00" departDelay="4.00" arrival="467.00" arrivalLane="-EW_0" arrivalPos="250.00" arrivalSpeed="20.00" duration="34.00" routeLength="509.40" waitingTime="0.00" waitingCount="0" stopTime="0.00" timeLoss="7.78" rerouteNo="0" devices="tripinfo_W2E_46" vType="ego_car" speedFactor="1.09" vaporized=""/>
    <tripinfo id="W2E_47" depart="435.00" departLane="WE_0" departPos="5.00" departSpeed="10.00" departDelay="5.00" arrival="469.00" arrivalLane="-EW_0" arrivalPos="250.00" arrivalSpeed="19.95" duration="34.00" routeLength="509.40" waitingTime="0.00" waitingCount="0" stopTime="0.00" timeLoss="7.98" rerouteNo="0" devices="tripinfo_W2E_47" vType="ego_car" speedFactor="1.00" vaporized=""/>
    <tripinfo id="E2W_53" depart="442.00" departLane="EW_0" departPos="5.00" departSpeed="10.00" departDelay="0.00" arrival="470.00" arrivalLane="-WE_0" arrivalPos="250.00" arrivalSpeed="20.00" duration="28.00" routeLength="509.40" waitingTime="0.00" waitingCount="0" stopTime="0.00" timeLoss="2.01" rerouteNo="0" devices="tripinfo_E2W_53" vType="ego_car" speedFactor="1.02" vaporized=""/>
    <tripinfo id="W2E_48" depart="437.00" departLane="WE_0" departPos="5.00" departSpeed="10.00" departDelay="7.00" arrival="472.00" arrivalLane="-EW_0" arrivalPos="250.00" arrivalSpeed="18.01" duration="35.00" routeLength="509.40" waitingTime="0.00" waitingCount="0" stopTime="0.00" timeLoss="6.65" rerouteNo="0" devices="tripinfo_W2E_48" vType="ego_car" speedFactor="0.90" vaporized=""/>
    <tripinfo id="E2W_55" depart="445.00" departLane="EW_0" departPos="5.00" departSpeed="10.00" departDelay="0.00" arrival="473.00" arrivalLane="-WE_0" arrivalPos="250.00" arrivalSpeed="20.00" duration="28.00" routeLength="509.40" waitingTime="0.00" waitingCount="0" stopTime="0.00" timeLoss="1.82" rerouteNo="0" devices="tripinfo_E2W_55" vType="ego_car" speedFactor="1.00" vaporized=""/>
    <tripinfo id="W2E_49" depart="439.00" departLane="WE_0" departPos="5.00" departSpeed="10.00" departDelay="7.00" arrival="475.00" arrivalLane="-EW_0" arrivalPos="250.00" arrivalSpeed="17.54" duration="36.00" routeLength="509.40" waitingTime="0.00" waitingCount="0" stopTime="0.00" timeLoss="6.36" rerouteNo="0" devices="tripinfo_W2E_49" vType="ego_car" speedFactor="0.88" vaporized=""/>
    <tripinfo id="W2E_50" depart="441.00" departLane="WE_0" departPos="5.00" departSpeed="10.00" departDelay="7.00" arrival="478.00" arrivalLane="-EW_0" arrivalPos="250.00" arrivalSpeed="17.01" duration="37.00" routeLength="509.40" waitingTime="0.00" waitingCount="0" stopTime="0.00" timeLoss="6.13" rerouteNo="0" devices="tripinfo_W2E_50" vType="ego_car" speedFactor="0.85" vaporized=""/>
    <tripinfo id="W2E_52" depart="443.00" departLane="WE_0" departPos="5.00" departSpeed="10.00" departDelay="6.00" arrival="479.00" arrivalLane="-EW_0" arrivalPos="250.00" arrivalSpeed="20.00" duration="36.00" routeLength="509.40" waitingTime="0.00" waitingCount="0" stopTime="0.00" timeLoss="10.36" rerouteNo="0" devices="tripinfo_W2E_52" vType="ego_car" speedFactor="1.17" vaporized=""/>
    <tripinfo id="E2W_59" depart="453.00" departLane="EW_0" departPos="5.00" departSpeed="10.00" departDelay="0.00" arrival="480.00" arrivalLane="-WE_0" arrivalPos="250.00" arrivalSpeed="20.00" duration="27.00" routeLength="509.40" waitingTime="0.00" waitingCount="0" stopTime="0.00" timeLoss="1.26" rerouteNo="0" devices="tripinfo_E2W_59" vType="ego_car" speedFactor="1.02" vaporized=""/>
    <tripinfo id="N2S_54" depart="442.00" departLane="NS_0" departPos="5.00" departSpeed="10.00" departDelay="0.00" arrival="490.00" arrivalLane="-SN_0" arrivalPos="250.00" arrivalSpeed="20.00" duration="48.00" routeLength="509.40" waitingTime="0.00" waitingCount="0" stopTime="0.00" timeLoss="22.27" rerouteNo="0" devices="tripinfo_N2S_54" vType="ego_car" speedFactor="1.10" vaporized=""/>
    <tripinfo id="S2N_51" depart="437.00" departLane="SN_0" departPos="5.00" departSpeed="10.00" departDelay="0.00" arrival="492.00" arrivalLane="-NS_0" arrivalPos="250.00" arrivalSpeed="17.10" duration="55.00" routeLength="509.40" waitingTime="0.00" waitingCount="0" stopTime="0.00" timeLoss="25.01" rerouteNo="0" devices="tripinfo_S2N_51" vType="ego_car" speedFactor="0.85" vaporized=""/>
    <tripinfo id="S2N_56" depart="446.00" departLane="SN_0" departPos="5.00" departSpeed="10.00" departDelay="0.00" arrival="494.00" arrivalLane="-NS_0" arrivalPos="250.00" arrivalSpeed="19.92" duration="48.00" routeLength="509.40" waitingTime="0.00" waitingCount="0" stopTime="0.00" timeLoss="22.12" rerouteNo="0" devices="tripinfo_S2N_56" vType="ego_car" speedFactor="1.00" vaporized=""/>
    <tripinfo id="S2N_57" depart="451.00" departLane="SN_0" departPos="5.00" departSpeed="10.00" departDelay="1.00" arrival="497.00" arrivalLane="-NS_0" arrivalPos="250.00" arrivalSpeed="17.98" duration="46.00" routeLength="509.40" waitingTime="0.00" waitingCount="0" stopTime="0.00" timeLoss="17.20" rerouteNo="0" devices="tripinfo_S2N_57" vType="ego_car" speedFactor="0.90" vaporized=""/>
    <tripinfo id="S2N_58" depart="456.00" departLane="SN_0" departPos="5.00" departSpeed="10.00" departDelay="6.00" arrival="499.00" arrivalLane="-NS_0" arrivalPos="250.00" arrivalSpeed="20.00" duration="43.00" routeLength="509.40" waitingTime="0.00" waitingCount="0" stopTime="0.00" timeLoss="16.78" rerouteNo="0" devices="tripinfo_S2N_58" vType="ego_car" speedFactor="1.14" vaporized=""/>
    <tripinfo id="S2N_62" depart="493.00" departLane="SN_0" departPos="5.00" departSpeed="10.00" departDelay="0.00" arrival="521.00" arrivalLane="-NS_0" arrivalPos="250.00" arrivalSpeed="20.00" duration="28.00" routeLength="509.40" waitingTime="0.00" waitingCount="0" stopTime="0.00" timeLoss="2.09" rerouteNo="0" devices="tripinfo_S2N_62" vType="ego_car" speedFactor="1.12" vaporized=""/>
    <tripinfo id="E2W_60" depart="470.00" departLane="EW_0" departPos="5.00" departSpeed="10.00" departDelay="0.00" arrival="526.00" arrivalLane="-WE_0" arrivalPos="250.00" arrivalSpeed="19.39" duration="56.00" routeLength="509.40" waitingTime="22.00" waitingCount="1" stopTime="0.00" timeLoss="29.58" rerouteNo="0" devices="tripinfo_E2W_60" vType="ego_car" speedFactor="0.97" vaporized=""/>
    <tripinfo id="E2W_61" depart="486.00" departLane="EW_0" departPos="5.00" departSpeed="10.00" departDelay="0.00" arrival="528.00" arrivalLane="-WE_0" arrivalPos="250.00" arrivalSpeed="20.00" duration="42.00" routeLength="509.40" waitingTime="0.00" waitingCount="0" stopTime="0.00" timeLoss="16.47" rerouteNo="0" devices="tripinfo_E2W_61" vType="ego_car" speedFactor="1.08" vaporized=""/>
    <tripinfo id="E2W_64" depart="504.00" departLane="EW_0" departPos="5.00" departSpeed="10.00" departDelay="0.00" arrival="532.00" arrivalLane="-WE_0" arrivalPos="250.00" arrivalSpeed="19.74" duration="28.00" routeLength="509.40" waitingTime="0.00" waitingCount="0" stopTime="0.00" timeLoss="2.12" rerouteNo="0" devices="tripinfo_E2W_64" vType="ego_car" speedFactor="0.99" vaporized=""/>
    <tripinfo id="E2W_65" depart="509.00" departLane="EW_0" departPos="5.00" departSpeed="10.00" departDelay="0.00" arrival="538.00" arrivalLane="-WE_0" arrivalPos="250.00" arrivalSpeed="18.75" duration="29.00" routeLength="509.40" waitingTime="0.00" waitingCount="0" stopTime="0.00" timeLoss="1.76" rerouteNo="0" devices="tripinfo_E2W_65" vType="ego_car" speedFactor="0.94" vaporized=""/>
    <tripinfo id="W2E_66" depart="515.00" departLane="WE_0" departPos="5.00" departSpeed="10.00" departDelay="0.00" arrival="545.00" arrivalLane="-EW_0" arrivalPos="250.00" arrivalSpeed="17.65" duration="30.00" routeLength="509.40" waitingTime="0.00" waitingCount="0" stopTime="0.00" timeLoss="0.86" rerouteNo="0" devices="tripinfo_W2E_66" vType="ego_car" speedFactor="0.88" vaporized=""/>
    <tripinfo id="W2E_67" depart="523.00" departLane="WE_0" departPos="5.00" departSpeed="10.00" departDelay="0.00" arrival="553.00" arrivalLane="-EW_0" arrivalPos="250.00" arrivalSpeed="18.14" duration="30.00" routeLength="509.40" waitingTime="0.00" waitingCount="0" stopTime="0.00" timeLoss="0.95" rerouteNo="0" devices="tripinfo_W2E_67" vType="ego_car" speedFactor="0.91" vaporized=""/>
    <tripinfo id="W2E_68" depart="525.00" departLane="WE_0" departPos="5.00" departSpeed="10.00" departDelay="1.00" arrival="554.00" arrivalLane="-EW_0" arrivalPos="250.00" arrivalSpeed="18.29" duration="29.00" routeLength="509.40" waitingTime="0.00" waitingCount="0" stopTime="0.00" timeLoss="1.01" rerouteNo="0" devices="tripinfo_W2E_68" vType="ego_car" speedFactor="0.91" vaporized=""/>
    <tripinfo id="N2S_63" depart="500.00" departLane="NS_0" departPos="5.00" departSpeed="10.00" departDelay="0.00" arrival="560.00" arrivalLane="-SN_0" arrivalPos="250.00" arrivalSpeed="20.00" duration="60.00" routeLength="509.40" waitingTime="26.00" waitingCount="1" stopTime="0.00" timeLoss="33.98" rerouteNo="0" devices="tripinfo_N2S_63" vType="ego_car" speedFactor="1.02" vaporized=""/>
    <tripinfo id="N2S_69" depart="526.00" departLane="NS_0" departPos="5.00" departSpeed="10.00" departDelay="0.00" arrival="562.00" arrivalLane="-SN_0" arrivalPos="250.00" arrivalSpeed="20.00" duration="36.00" routeLength="509.40" waitingTime="0.00" waitingCount="0" stopTime="0.00" timeLoss="10.46" rerouteNo="0" devices="tripinfo_N2S_69" vType="ego_car" speedFactor="1.04" vaporized=""/>
    <tripinfo id="N2S_72" depart="538.00" departLane="NS_0" departPos="5.00" departSpeed="10.00" departDelay="0.00" arrival="566.00" arrivalLane="-SN_0" arrivalPos="250.00" arrivalSpeed="19.46" duration="28.00" routeLength="509.40" waitingTime="0.00" waitingCount="0" stopTime="0.00" timeLoss="1.42" rerouteNo="0" devices="tripinfo_N2S_72" vType="ego_car" speedFactor="0.97" vaporized=""/>
    <tripinfo id="S2N_73" depart="541.00" departLane="SN_0" departPos="5.00" departSpeed="10.00" departDelay="0.00" arrival="569.00" arrivalLane="-NS_0" arrivalPos="250.00" arrivalSpeed="18.80" duration="28.00" routeLength="509.40" waitingTime="0.00" waitingCount="0" stopTime="0.00" timeLoss="0.81" rerouteNo="0" devices="tripinfo_S2N_73" vType="ego_car" speedFactor="0.94" vaporized=""/>
    <tripinfo id="N2S_75" depart="558.00" departLane="NS_0" departPos="5.00" departSpeed="10.00" departDelay="0.00" arrival="586.00" arrivalLane="-SN_0" arrivalPos="250.00" arrivalSpeed="19.10" duration="28.00" routeLength="509.40" waitingTime="0.00" waitingCount="0" stopTime="0.00" timeLoss="0.90" rerouteNo="0" devices="tripinfo_N2S_75" vType="ego_car" speedFactor="0.96" vaporized=""/>
    <tripinfo id="S2N_76" depart="559.00" departLane="SN_0" departPos="5.00" departSpeed="10.00" departDelay="0.00" arrival="586.00" arrivalLane="-NS_0" arrivalPos="250.00" arrivalSpeed="19.70" duration="27.00" routeLength="509.40" waitingTime="0.00" waitingCount="0" stopTime="0.00" timeLoss="0.98" rerouteNo="0" devices="tripinfo_S2N_76" vType="ego_car" speedFactor="0.98" vaporized=""/>