<?xml version="1.0" encoding="UTF-8"?>

<!-- generated on 2023-03-11 11:35:50 by Eclipse SUMO sumo Version 1.13.0
<configuration xmlns:xsi="http://www.w3.org/2001/XMLSchema-instance" xsi:noNamespaceSchemaLocation="http://sumo.dlr.de/xsd/sumoConfiguration.xsd">

    <input>
        <net-file value="/home/yuwz/tmp/graduation_design/rou_net/intersection.net.xml"/>
        <route-files value="/home/yuwz/tmp/graduation_design/rou_net/intersection100.rou.xml"/>
    </input>

    <output>
        <tripinfo-output value="/home/yuwz/tmp/graduation_design/rou_net/tripinfo.xml"/>
    </output>

    <time>
        <begin value="0"/>
        <end value="3600"/>
        <step-length value="1"/>
    </time>

    <processing>
        <waiting-time-memory value="3600"/>
    </processing>

    <report>
        <no-step-log value="true"/>
    </report>

    <traci_server>
        <remote-port value="58237"/>
    </traci_server>

    <gui_only>
        <tracker-interval value="1"/>
    </gui_only>

</configuration>
-->

<tripinfos xmlns:xsi="http://www.w3.org/2001/XMLSchema-instance" xsi:noNamespaceSchemaLocation="http://sumo.dlr.de/xsd/tripinfo_file.xsd">
    <tripinfo id="W2E_1" depart="33.00" departLane="WE_0" departPos="5.00" departSpeed="10.00" departDelay="0.00" arrival="60.00" arrivalLane="-EW_0" arrivalPos="250.00" arrivalSpeed="20.00" duration="27.00" routeLength="509.40" waitingTime="0.00" waitingCount="0" stopTime="0.00" timeLoss="1.15" rerouteNo="0" devices="tripinfo_W2E_1" vType="ego_car" speedFactor="1.06" vaporized=""/>
    <tripinfo id="W2E_2" depart="73.00" departLane="WE_0" departPos="5.00" departSpeed="10.00" departDelay="0.00" arrival="119.00" arrivalLane="-EW_0" arrivalPos="250.00" arrivalSpeed="18.77" duration="46.00" routeLength="509.40" waitingTime="11.00" waitingCount="1" stopTime="0.00" timeLoss="17.97" rerouteNo="0" devices="tripinfo_W2E_2" vType="ego_car" speedFactor="0.94" vaporized=""/>
    <tripinfo id="E2W_4" depart="111.00" departLane="EW_0" departPos="5.00" departSpeed="10.00" departDelay="0.00" arrival="138.00" arrivalLane="-WE_0" arrivalPos="250.00" arrivalSpeed="20.00" duration="27.00" routeLength="509.40" waitingTime="0.00" waitingCount="0" stopTime="0.00" timeLoss="1.46" rerouteNo="0" devices="tripinfo_E2W_4" vType="ego_car" speedFactor="1.08" vaporized=""/>
    <tripinfo id="E2W_5" depart="120.00" departLane="EW_0" departPos="5.00" departSpeed="10.00" departDelay="0.00" arrival="147.00" arrivalLane="-WE_0" arrivalPos="250.00" arrivalSpeed="20.00" duration="27.00" routeLength="509.40" waitingTime="0.00" waitingCount="0" stopTime="0.00" timeLoss="1.41" rerouteNo="0" devices="tripinfo_E2W_5" vType="ego_car" speedFactor="1.03" vaporized=""/>
    <tripinfo id="S2N_3" depart="88.00" departLane="SN_0" departPos="5.00" departSpeed="10.00" departDelay="0.00" arrival="152.00" arrivalLane="-NS_0" arrivalPos="250.00" arrivalSpeed="20.00" duration="64.00" routeLength="509.40" waitingTime="30.00" waitingCount="1" stopTime="0.00" timeLoss="37.95" rerouteNo="0" devices="tripinfo_S2N_3" vType="ego_car" speedFactor="1.01" vaporized=""/>
    <tripinfo id="E2W_7" depart="173.00" departLane="EW_0" departPos="5.00" departSpeed="10.00" departDelay="0.00" arrival="200.00" arrivalLane="-WE_0" arrivalPos="250.00" arrivalSpeed="20.00" duration="27.00" routeLength="509.40" waitingTime="0.00" waitingCount="0" stopTime="0.00" timeLoss="1.04" rerouteNo="0" devices="tripinfo_E2W_7" vType="ego_car" speedFactor="1.05" vaporized=""/>
    <tripinfo id="S2N_6" depart="169.00" departLane="SN_0" departPos="5.00" departSpeed="10.00" departDelay="0.00" arrival="222.00" arrivalLane="-NS_0" arrivalPos="250.00" arrivalSpeed="16.62" duration="53.00" routeLength="509.40" waitingTime="16.00" waitingCount="1" stopTime="0.00" timeLoss="22.00" rerouteNo="0" devices="tripinfo_S2N_6" vType="ego_car" speedFactor="0.83" vaporized=""/>
    <tripinfo id="S2N_9" depart="205.00" departLane="SN_0" departPos="5.00" departSpeed="10.00" departDelay="0.00" arrival="233.00" arrivalLane="-NS_0" arrivalPos="250.00" arrivalSpeed="18.76" duration="28.00" routeLength="509.40" waitingTime="0.00" waitingCount="0" stopTime="0.00" timeLoss="0.81" rerouteNo="0" devices="tripinfo_S2N_9" vType="ego_car" speedFactor="0.94" vaporized=""/>
    <tripinfo id="N2S_10" depart="216.00" departLane="NS_0" departPos="5.00" departSpeed="10.00" departDelay="0.00" arrival="247.00" arrivalLane="-SN_0" arrivalPos="250.00" arrivalSpeed="17.14" duration="31.00" routeLength="509.40" waitingTime="0.00" waitingCount="0" stopTime="0.00" timeLoss="0.78" rerouteNo="0" devices="tripinfo_N2S_10" vType="ego_car" speedFactor="0.86" vaporized=""/>
    <tripinfo id="W2E_11" depart="218.00" departLane="WE_0" departPos="5.00" departSpeed="10.00" departDelay="0.00" arrival="254.00" arrivalLane="-EW_0" arrivalPos="250.00" arrivalSpeed="20.00" duration="36.00" routeLength="509.40" waitingTime="2.00" waitingCount="1" stopTime="0.00" timeLoss="9.95" rerouteNo="0" devices="tripinfo_W2E_11" vType="ego_car" speedFactor="1.09" vaporized=""/>
    <tripinfo id="E2W_8" depart="200.00" departLane="EW_0" departPos="5.00" departSpeed="10.00" departDelay="0.00" arrival="255.00" arrivalLane="-WE_0" arrivalPos="250.00" arrivalSpeed="17.72" duration="55.00" routeLength="509.40" waitingTime="20.00" waitingCount="1" stopTime="0.00" timeLoss="26.01" rerouteNo="0" devices="tripinfo_E2W_8" vType="ego_car" speedFactor="0.89" vaporized=""/>
    <tripinfo id="W2E_14" depart="228.00" departLane="WE_0" departPos="5.00" departSpeed="10.00" departDelay="0.00" arrival="256.00" arrivalLane="-EW_0" arrivalPos="250.00" arrivalSpeed="20.00" duration="28.00" routeLength="509.40" waitingTime="0.00" waitingCount="0" stopTime="0.00" timeLoss="2.23" rerouteNo="0" devices="tripinfo_W2E_14" vType="ego_car" speedFactor="1.12" vaporized=""/>
    <tripinfo id="E2W_12" depart="224.00" departLane="EW_0" departPos="5.00" departSpeed="10.00" departDelay="0.00" arrival="257.00" arrivalLane="-WE_0" arrivalPos="250.00" arrivalSpeed="20.00" duration="33.00" routeLength="509.40" waitingTime="0.00" waitingCount="0" stopTime="0.00" timeLoss="6.95" rerouteNo="0" devices="tripinfo_E2W_12" vType="ego_car" speedFactor="1.03" vaporized=""/>
    <tripinfo id="E2W_15" depart="229.00" departLane="EW_0" departPos="5.00" departSpeed="10.00" departDelay="0.00" arrival="259.00" arrivalLane="-WE_0" arrivalPos="250.00" arrivalSpeed="19.82" duration="30.00" routeLength="509.40" waitingTime="0.00" waitingCount="0" stopTime="0.00" timeLoss="3.52" rerouteNo="0" devices="tripinfo_E2W_15" vType="ego_car" speedFactor="0.99" vaporized=""/>
    <tripinfo id="N2S_13" depart="227.00" departLane="NS_0" departPos="5.00" departSpeed="10.00" departDelay="0.00" arrival="288.00" arrivalLane="-SN_0" arrivalPos="250.00" arrivalSpeed="20.00" duration="61.00" routeLength="509.40" waitingTime="27.00" waitingCount="1" stopTime="0.00" timeLoss="35.06" rerouteNo="0" devices="tripinfo_N2S_13" vType="ego_car" speedFactor="1.05" vaporized=""/>
    <tripinfo id="S2N_17" depart="253.00" departLane="SN_0" departPos="5.00" departSpeed="10.00" departDelay="0.00" arrival="290.00" arrivalLane="-NS_0" arrivalPos="250.00" arrivalSpeed="17.57" duration="37.00" routeLength="509.40" waitingTime="1.00" waitingCount="1" stopTime="0.00" timeLoss="7.08" rerouteNo="0" devices="tripinfo_S2N_17" vType="ego_car" speedFactor="0.88" vaporized=""/>
    <tripinfo id="N2S_16" depart="245.00" departLane="NS_0" departPos="5.00" departSpeed="10.00" departDelay="0.00" arrival="291.00" arrivalLane="-SN_0" arrivalPos="250.00" arrivalSpeed="18.54" duration="46.00" routeLength="509.40" waitingTime="0.00" waitingCount="0" stopTime="0.00" timeLoss="17.55" rerouteNo="0" devices="tripinfo_N2S_16" vType="ego_car" speedFactor="0.93" vaporized=""/>
    <tripinfo id="S2N_18" depart="281.00" departLane="SN_0" departPos="5.00" departSpeed="10.00" departDelay="0.00" arrival="310.00" arrivalLane="-NS_0" arrivalPos="250.00" arrivalSpeed="18.83" duration="29.00" routeLength="509.40" waitingTime="0.00" waitingCount="0" stopTime="0.00" timeLoss="0.97" rerouteNo="0" devices="tripinfo_S2N_18" vType="ego_car" speedFactor="0.94" vaporized=""/>
    <tripinfo id="S2N_21" depart="286.00" departLane="SN_0" departPos="5.00" departSpeed="10.00" departDelay="0.00" arrival="313.00" arrivalLane="-NS_0" arrivalPos="250.00" arrivalSpeed="20.00" duration="27.00" routeLength="509.40" waitingTime="0.00" waitingCount="0" stopTime="0.00" timeLoss="1.08" rerouteNo="0" devices="tripinfo_S2N_21" vType="ego_car" speedFactor="1.02" vaporized=""/>
    <tripinfo id="E2W_20" depart="284.00" departLane="EW_0" departPos="5.00" departSpeed="10.00" departDelay="0.00" arrival="322.00" arrivalLane="-WE_0" arrivalPos="250.00" arrivalSpeed="20.00" duration="38.00" routeLength="509.40" waitingTime="4.00" waitingCount="1" stopTime="0.00" timeLoss="11.97" rerouteNo="0" devices="tripinfo_E2W_20" vType="ego_car" speedFactor="1.16" vaporized=""/>
    <tripinfo id="W2E_19" depart="281.00" departLane="WE_0" departPos="5.00" departSpeed="10.00" departDelay="0.00" arrival="323.00" arrivalLane="-EW_0" arrivalPos="250.00" arrivalSpeed="18.72" duration="42.00" routeLength="509.40" waitingTime="7.00" waitingCount="1" stopTime="0.00" timeLoss="14.01" rerouteNo="0" devices="tripinfo_W2E_19" vType="ego_car" speedFactor="0.94" vaporized=""/>
    <tripinfo id="W2E_22" depart="302.00" departLane="WE_0" departPos="5.00" departSpeed="10.00" departDelay="0.00" arrival="329.00" arrivalLane="-EW_0" arrivalPos="250.00" arrivalSpeed="20.00" duration="27.00" routeLength="509.40" waitingTime="0.00" waitingCount="0" stopTime="0.00" timeLoss="1.08" rerouteNo="0" devices="tripinfo_W2E_22" vType="ego_car" speedFactor="1.01" vaporized=""/>
    <tripinfo id="E2W_23" depart="304.00" departLane="EW_0" departPos="5.00" departSpeed="10.00" departDelay="0.00" arrival="332.00" arrivalLane="-WE_0" arrivalPos="250.00" arrivalSpeed="19.50" duration="28.00" routeLength="509.40" waitingTime="0.00" waitingCount="0" stopTime="0.00" timeLoss="1.08" rerouteNo="0" devices="tripinfo_E2W_23" vType="ego_car" speedFactor="0.97" vaporized=""/>
    <tripinfo id="E2W_24" depart="306.00" departLane="EW_0" departPos="5.00" departSpeed="10.00" departDelay="2.00" arrival="336.00" arrivalLane="-WE_0" arrivalPos="250.00" arrivalSpeed="17.79" duration="30.00" routeLength="509.40" waitingTime="0.00" waitingCount="0" stopTime="0.00" timeLoss="0.96" rerouteNo="0" devices="tripinfo_E2W_24" vType="ego_car" speedFactor="0.89" vaporized=""/>
    <tripinfo id="E2W_26" depart="322.00" departLane="EW_0" departPos="5.00" departSpeed="10.00" departDelay="0.00" arrival="352.00" arrivalLane="-WE_0" arrivalPos="250.00" arrivalSpeed="17.45" duration="30.00" routeLength="509.40" waitingTime="0.00" waitingCount="0" stopTime="0.00" timeLoss="0.63" rerouteNo="0" devices="tripinfo_E2W_26" vType="ego_car" speedFactor="0.87" vaporized=""/>
    <tripinfo id="N2S_25" depart="315.00" departLane="NS_0" departPos="5.00" departSpeed="10.00" departDelay="0.00" arrival="358.00" arrivalLane="-SN_0" arrivalPos="250.00" arrivalSpeed="16.51" duration="43.00" routeLength="509.40" waitingTime="6.00" waitingCount="1" stopTime="0.00" timeLoss="11.90" rerouteNo="0" devices="tripinfo_N2S_25" vType="ego_car" speedFactor="0.83" vaporized=""/>
    <tripinfo id="S2N_28" depart="347.00" departLane="SN_0" departPos="5.00" departSpeed="10.00" departDelay="0.00" arrival="375.00" arrivalLane="-NS_0" arrivalPos="250.00" arrivalSpeed="18.98" duration="28.00" routeLength="509.40" waitingTime="0.00" waitingCount="0" stopTime="0.00" timeLoss="0.84" rerouteNo="0" devices="tripinfo_S2N_28" vType="ego_car" speedFactor="0.95" vaporized=""/>
    <tripinfo id="S2N_29" depart="355.00" departLane="SN_0" departPos="5.00" departSpeed="10.00" departDelay="0.00" arrival="382.00" arrivalLane="-NS_0" arrivalPos="250.00" arrivalSpeed="20.00" duration="27.00" routeLength="509.40" waitingTime="0.00" waitingCount="0" stopTime="0.00" timeLoss="1.00" rerouteNo="0" devices="tripinfo_S2N_29" vType="ego_car" speedFactor="1.13" vaporized=""/>
    <tripinfo id="W2E_27" depart="324.00" departLane="WE_0" departPos="5.00" departSpeed="10.00" departDelay="0.00" arrival="391.00" arrivalLane="-EW_0" arrivalPos="250.00" arrivalSpeed="18.34" duration="67.00" routeLength="509.40" waitingTime="31.00" waitingCount="1" stopTime="0.00" timeLoss="38.59" rerouteNo="0" devices="tripinfo_W2E_27" vType="ego_car" speedFactor="0.92" vaporized=""/>
    <tripinfo id="S2N_31" depart="384.00" departLane="SN_0" departPos="5.00" departSpeed="10.00" departDelay="0.00" arrival="424.00" arrivalLane="-NS_0" arrivalPos="250.00" arrivalSpeed="20.00" duration="40.00" routeLength="509.40" waitingTime="6.00" waitingCount="1" stopTime="0.00" timeLoss="13.96" rerouteNo="0" devices="tripinfo_S2N_31" vType="ego_car" speedFactor="1.18" vaporized=""/>
    <tripinfo id="N2S_30" depart="376.00" departLane="NS_0" departPos="5.00" departSpeed="10.00" departDelay="0.00" arrival="425.00" arrivalLane="-SN_0" arrivalPos="250.00" arrivalSpeed="18.63" duration="49.00" routeLength="509.40" waitingTime="14.00" waitingCount="1" stopTime="0.00" timeLoss="20.84" rerouteNo="0" devices="tripinfo_N2S_30" vType="ego_car" speedFactor="0.93" vaporized=""/>
    <tripinfo id="S2N_32" depart="394.00" departLane="SN_0" departPos="5.00" departSpeed="10.00" departDelay="0.00" arrival="426.00" arrivalLane="-NS_0" arrivalPos="250.00" arrivalSpeed="20.00" duration="32.00" routeLength="509.40" waitingTime="0.00" waitingCount="0" stopTime="0.00" timeLoss="5.78" rerouteNo="0" devices="tripinfo_S2N_32" vType="ego_car" speedFactor="1.15" vaporized=""/>
    <tripinfo id="S2N_33" depart="397.00" departLane="SN_0" departPos="5.00" departSpeed="10.00" departDelay="0.00" arrival="428.00" arrivalLane="-NS_0" arrivalPos="250.00" arrivalSpeed="20.00" duration="31.00" routeLength="509.40" waitingTime="0.00" waitingCount="0" stopTime="0.00" timeLoss="4.56" rerouteNo="0" devices="tripinfo_S2N_33" vType="ego_car" speedFactor="1.01" vaporized=""/>
    <tripinfo id="S2N_34" depart="405.00" departLane="SN_0" departPos="5.00" departSpeed="10.00" departDelay="0.00" arrival="432.00" arrivalLane="-NS_0" arrivalPos="250.00" arrivalSpeed="20.00" duration="27.00" routeLength="509.40" waitingTime="0.00" waitingCount="0" stopTime="0.00" timeLoss="1.01" rerouteNo="0" devices="tripinfo_S2N_34" vType="ego_car" speedFactor="1.17" vaporized=""/>
    <tripinfo id="S2N_35" depart="407.00" departLane="SN_0" departPos="5.00" departSpeed="10.00" departDelay="0.00" arrival="434.00" arrivalLane="-NS_0" arrivalPos="250.00" arrivalSpeed="19.90" duration="27.00" routeLength="509.40" waitingTime="0.00" waitingCount="0" stopTime="0.00" timeLoss="1.08" rerouteNo="0" devices="tripinfo_S2N_35" vType="ego_car" speedFactor="0.99" vaporized=""/>
    <tripinfo id="E2W_36" depart="420.00" departLane="EW_0" departPos="5.00" departSpeed="10.00" departDelay="0.00" arrival="458.00" arrivalLane="-WE_0" arrivalPos="250.00" arrivalSpeed="20.00" duration="38.00" routeLength="509.40" waitingTime="3.00" waitingCount="1" stopTime="0.00" timeLoss="11.95" rerouteNo="0" devices="tripinfo_E2W_36" vType="ego_car" speedFactor="1.02" vaporized=""/>
    <tripinfo id="E2W_37" depart="427.00" departLane="EW_0" departPos="5.00" departSpeed="10.00" departDelay="0.00" arrival="460.00" arrivalLane="-WE_0" arrivalPos="250.00" arrivalSpeed="19.46" duration="33.00" routeLength="509.40" waitingTime="0.00" waitingCount="0" stopTime="0.00" timeLoss="6.41" rerouteNo="0" devices="tripinfo_E2W_37" vType="ego_car" speedFactor="0.97" vaporized=""/>
    <tripinfo id="E2W_39" depart="439.00" departLane="EW_0" departPos="5.00" departSpeed="10.00" departDelay="0.00" arrival="466.00" arrivalLane="-WE_0" arrivalPos="250.00" arrivalSpeed="20.00" duration="27.00" routeLength="509.40" waitingTime="0.00" waitingCount="0" stopTime="0.00" timeLoss="1.10" rerouteNo="0" devices="tripinfo_E2W_39" vType="ego_car" speedFactor="1.10" vaporized=""/>
    <tripinfo id="W2E_40" depart="448.00" departLane="WE_0" departPos="5.00" departSpeed="10.00" departDelay="0.00" arrival="478.00" arrivalLane="-EW_0" arrivalPos="250.00" arrivalSpeed="18.01" duration="30.00" routeLength="509.40" waitingTime="0.00" waitingCount="0" stopTime="0.00" timeLoss="0.77" rerouteNo="0" devices="tripinfo_W2E_40" vType="ego_car" speedFactor="0.90" vaporized=""/>
    <tripinfo id="E2W_42" depart="455.00" departLane="EW_0" departPos="5.00" departSpeed="10.00" departDelay="0.00" arrival="483.00" arrivalLane="-WE_0" arrivalPos="250.00" arrivalSpeed="19.14" duration="28.00" routeLength="509.40" waitingTime="0.00" waitingCount="0" stopTime="0.00" timeLoss="0.87" rerouteNo="0" devices="tripinfo_E2W_42" vType="ego_car" speedFactor="0.96" vaporized=""/>
    <tripinfo id="E2W_43" depart="459.00" departLane="EW_0" departPos="5.00" departSpeed="10.00" departDelay="0.00" arrival="486.00" arrivalLane="-WE_0" arrivalPos="250.00" arrivalSpeed="20.00" duration="27.00" routeLength="509.40" waitingTime="0.00" waitingCount="0" stopTime="0.00" timeLoss="1.04" rerouteNo="0" devices="tripinfo_E2W_43" vType="ego_car" speedFactor="1.09" vaporized=""/>
    <tripinfo id="N2S_38" depart="434.00" departLane="NS_0" departPos="5.00" departSpeed="10.00" departDelay="0.00" arrival="492.00" arrivalLane="-SN_0" arrivalPos="250.00" arrivalSpeed="20.00" duration="58.00" routeLength="509.40" waitingTime="24.00" waitingCount="1" stopTime="0.00" timeLoss="31.95" rerouteNo="0" devices="tripinfo_N2S_38" vType="ego_car" speedFactor="1.18" vaporized=""/>
    <tripinfo id="S2N_41" depart="453.00" departLane="SN_0" departPos="5.00" departSpeed="10.00" departDelay="0.00" arrival="492.00" arrivalLane="-NS_0" arrivalPos="250.00" arrivalSpeed="20.00" duration="39.00" routeLength="509.40" waitingTime="5.00" waitingCount="1" stopTime="0.00" timeLoss="12.95" rerouteNo="0" devices="tripinfo_S2N_41" vType="ego_car" speedFactor="1.03" vaporized=""/>
    <tripinfo id="N2S_44" depart="472.00" departLane="NS_0" departPos="5.00" departSpeed="10.00" departDelay="0.00" arrival="499.00" arrivalLane="-SN_0" arrivalPos="250.00" arrivalSpeed="20.00" duration="27.00" routeLength="509.40" waitingTime="0.00" waitingCount="0" stopTime="0.00" timeLoss="1.34" rerouteNo="0" devices="tripinfo_N2S_44" vType="ego_car" speedFactor="1.04" vaporized=""/>
    <tripinfo id="N2S_47" depart="488.00" departLane="NS_0" departPos="5.00" departSpeed="10.00" departDelay="0.00" arrival="516.00" arrivalLane="-SN_0" arrivalPos="250.00" arrivalSpeed="19.95" duration="28.00" routeLength="509.40" waitingTime="0.00" waitingCount="0" stopTime="0.00" timeLoss="1.81" rerouteNo="0" devices="tripinfo_N2S_47" vType="ego_car" speedFactor="1.00" vaporized=""/>
    <tripinfo id="E2W_45" depart="475.00" departLane="EW_0" departPos="5.00" departSpeed="10.00" departDelay="0.00" arrival="526.00" arrivalLane="-WE_0" arrivalPos="250.00" arrivalSpeed="20.00" duration="51.00" routeLength="509.40" waitingTime="17.00" waitingCount="1" stopTime="0.00" timeLoss="25.01" rerouteNo="0" devices="tripinfo_E2W_45" vType="ego_car" speedFactor="1.04" vaporized=""/>
    <tripinfo id="W2E_46" depart="485.00" departLane="WE_0" departPos="5.00" departSpeed="10.00" departDelay="0.00" arrival="526.00" arrivalLane="-EW_0" arrivalPos="250.00" arrivalSpeed="20.00" duration="41.00" routeLength="509.40" waitingTime="7.00" waitingCount="1" stopTime="0.00" timeLoss="15.13" rerouteNo="0" devices="tripinfo_W2E_46" vType="ego_car" speedFactor="1.09" vaporized=""/>
    <tripinfo id="E2W_48" depart="493.00" departLane="EW_0" departPos="5.00" departSpeed="10.00" departDelay="0.00" arrival="529.00" arrivalLane="-WE_0" arrivalPos="250.00" arrivalSpeed="18.01" duration="36.00" routeLength="509.40" waitingTime="0.00" waitingCount="0" stopTime="0.00" timeLoss="7.25" rerouteNo="0" devices="tripinfo_E2W_48" vType="ego_car" speedFactor="0.90" vaporized=""/>
    <tripinfo id="W2E_50" depart="502.00" departLane="WE_0" departPos="5.00" departSpeed="10.00" departDelay="0.00" arrival="533.00" arrivalLane="-EW_0" arrivalPos="250.00" arrivalSpeed="17.01" duration="31.00" routeLength="509.40" waitingTime="0.00" waitingCount="0" stopTime="0.00" timeLoss="0.53" rerouteNo="0" devices="tripinfo_W2E_50" vType="ego_car" speedFactor="0.85" vaporized=""/>
    <tripinfo id="E2W_52" depart="512.00" departLane="EW_0" departPos="5.00" departSpeed="10.00" departDelay="0.00" arrival="539.00" arrivalLane="-WE_0" arrivalPos="250.00" arrivalSpeed="20.00" duration="27.00" routeLength="509.40" waitingTime="0.00" waitingCount="0" stopTime="0.00" timeLoss="1.15" rerouteNo="0" devices="tripinfo_E2W_52" vType="ego_car" speedFactor="1.17" vaporized=""/>
    <tripinfo id="W2E_51" depart="509.00" departLane="WE_0" departPos="5.00" departSpeed="10.00" departDelay="0.00" arrival="540.00" arrivalLane="-EW_0" arrivalPos="250.00" arrivalSpeed="17.10" duration="31.00" routeLength="509.40" waitingTime="0.00" waitingCount="0" stopTime="0.00" timeLoss="0.54" rerouteNo="0" devices="tripinfo_W2E_51" vType="ego_car" speedFactor="0.85" vaporized=""/>
    <tripinfo id="E2W_53" depart="517.00" departLane="EW_0" departPos="5.00" departSpeed="10.00" departDelay="0.00" arrival="544.00" arrivalLane="-WE_0" arrivalPos="250.00" arrivalSpeed="20.00" duration="27.00" routeLength="509.40" waitingTime="0.00" waitingCount="0" stopTime="0.00" timeLoss="1.21" rerouteNo="0" devices="tripinfo_E2W_53" vType="ego_car" speedFactor="1.02" vaporized=""/>
    <tripinfo id="E2W_54" depart="519.00" departLane="EW_0" departPos="5.00" departSpeed="10.00" departDelay="1.00" arrival="546.00" arrivalLane="-WE_0" arrivalPos="250.00" arrivalSpeed="20.00" duration="27.00" routeLength="509.40" waitingTime="0.00" waitingCount="0" stopTime="0.00" timeLoss="1.38" rerouteNo="0" devices="tripinfo_E2W_54" vType="ego_car" speedFactor="1.10" vaporized=""/>
    <tripinfo id="E2W_55" depart="528.00" departLane="EW_0" departPos="5.00" departSpeed="10.00" departDelay="0.00" arrival="555.00" arrivalLane="-WE_0" arrivalPos="250.00" arrivalSpeed="20.00" duration="27.00" routeLength="509.40" waitingTime="0.00" waitingCount="0" stopTime="0.00" timeLoss="1.08" rerouteNo="0" devices="tripinfo_E2W_55" vType="ego_car" speedFactor="1.00" vaporized=""/>
    <tripinfo id="S2N_49" depart="494.00" departLane="SN_0" departPos="5.00" departSpeed="10.00" departDelay="0.00" arrival="562.00" arrivalLane="-NS_0" arrivalPos="250.00" arrivalSpeed="17.54" duration="68.00" routeLength="509.40" waitingTime="31.00" waitingCount="1" stopTime="0.00" timeLoss="38.07" rerouteNo="0" devices="tripinfo_S2N_49" vType="ego_car" speedFactor="0.88" vaporized=""/>
    <tripinfo id="N2S_60" depart="558.00" departLane="NS_0" departPos="5.00" departSpeed="10.00" departDelay="0.00" arrival="586.00" arrivalLane="-SN_0" arrivalPos="250.00" arrivalSpeed="19.39" duration="28.00" routeLength="509.40" waitingTime="0.00" waitingCount="0" stopTime="0.00" timeLoss="0.91" rerouteNo="0" devices="tripinfo_N2S_60" vType="ego_car" speedFactor="0.97" vaporized=""/>
    <tripinfo id="S2N_61" depart="561.00" departLane="SN_0" departPos="5.00" departSpeed="10.00" departDelay="0.00" arrival="588.00" arrivalLane="-NS_0" arrivalPos="250.00" arrivalSpeed="20.00" duration="27.00" routeLength="509.40" waitingTime="0.00" waitingCount="0" stopTime="0.00" timeLoss="1.09" rerouteNo="0" devices="tripinfo_S2N_61" vType="ego_car" speedFactor="1.08" vaporized=""/>
    <tripinfo id="W2E_56" depart="536.00" departLane="WE_0" departPos="5.00" departSpeed="10.00" departDelay="0.00" arrival="594.00" arrivalLane="-EW_0" arrivalPos="250.00" arrivalSpeed="19.92" duration="58.00" routeLength="509.40" waitingTime="24.00" waitingCount="1" stopTime="0.00" timeLoss="31.89" rerouteNo="0" devices="tripinfo_W2E_56" vType="ego_car" speedFactor="1.00" vaporized=""/>
    <tripinfo id="E2W_57" depart="538.00" departLane="EW_0" departPos="5.00" departSpeed="10.00" departDelay="0.00" arrival="595.00" arrivalLane="-WE_0" arrivalPos="250.00" arrivalSpeed="17.98" duration="57.00" routeLength="509.40" waitingTime="22.00" waitingCount="1" stopTime="0.00" timeLoss="28.26" rerouteNo="0" devices="tripinfo_E2W_57" vType="ego_car" speedFactor="0.90" vaporized=""/>
    <tripinfo id="W2E_58" depart="547.00" departLane="WE_0" departPos="5.00" departSpeed="10.00" departDelay="0.00" arrival="596.00" arrivalLane="-EW_0" arrivalPos="250.00" arrivalSpeed="20.00" duration="49.00" routeLength="509.40" waitingTime="11.00" waitingCount="1" stopTime="0.00" timeLoss="23.08" rerouteNo="0" devices="tripinfo_W2E_58" vType="ego_car" speedFactor="1.14" vaporized=""/>
    <tripinfo id="W2E_59" depart="549.00" departLane="WE_0" departPos="5.00" departSpeed="10.00" departDelay="0.00" arrival="598.00" arrivalLane="-EW_0" arrivalPos="250.00" arrivalSpeed="20.00" duration="49.00" routeLength="509.40" waitingTime="1.00" waitingCount="1" stopTime="0.00" timeLoss="22.84" rerouteNo="0" devices="tripinfo_W2E_59" vType="ego_car" speedFactor="1.02" vaporized=""/>
    <tripinfo id="W2E_63" depart="569.00" departLane="WE_0" departPos="5.00" departSpeed="10.00" departDelay="0.00" arrival="600.00" arrivalLane="-EW_0" arrivalPos="250.00" arrivalSpeed="20.00" duration="31.00" routeLength="509.40" waitingTime="0.00" waitingCount="0" stopTime="0.00" timeLoss="4.65" rerouteNo="0" devices="tripinfo_W2E_63" vType="ego_car" speedFactor="1.02" vaporized=""/>
    <tripinfo id="W2E_64" depart="571.00" departLane="WE_0" departPos="5.00" departSpeed="10.00" departDelay="1.00" arrival="602.00" arrivalLane="-EW_0" arrivalPos="250.00" arrivalSpeed="19.74" duration="31.00" routeLength="509.40" waitingTime="0.00" waitingCount="0" stopTime="0.00" timeLoss="4.26" rerouteNo="0" devices="tripinfo_W2E_64" vType="ego_car" speedFactor="0.99" vaporized=""/>
    <tripinfo id="E2W_67" depart="585.00" departLane="EW_0" departPos="5.00" departSpeed="10.00" departDelay="0.00" arrival="615.00" arrivalLane="-WE_0" arrivalPos="250.00" arrivalSpeed="18.14" duration="30.00" routeLength="509.40" waitingTime="0.00" waitingCount="0" stopTime="0.00" timeLoss="1.12" rerouteNo="0" devices="tripinfo_E2W_67" vType="ego_car" speedFactor="0.91" vaporized=""/>
    <tripinfo id="S2N_62" depart="567.00" departLane="SN_0" departPos="5.00" departSpeed="10.00" departDelay="0.00" arrival="628.00" arrivalLane="-NS_0" arrivalPos="250.00" arrivalSpeed="20.00" duration="61.00" routeLength="509.40" waitingTime="27.00" waitingCount="1" stopTime="0.00" timeLoss="35.06" rerouteNo="0" devices="tripinfo_S2N_62" vType="ego_car" speedFactor="1.12" vaporized=""/>
    <tripinfo id="S2N_65" depart="575.00" departLane="SN_0" departPos="5.00" departSpeed="10.00" departDelay="0.00" arrival="631.00" arrivalLane="-NS_0" arrivalPos="250.00" arrivalSpeed="18.75" duration="56.00" routeLength="509.40" waitingTime="17.00" waitingCount="1" stopTime="0.00" timeLoss="28.56" rerouteNo="0" devices="tripinfo_S2N_65" vType="ego_car" speedFactor="0.94" vaporized=""/>
    <tripinfo id="S2N_66" depart="584.00" departLane="SN_0" departPos="5.00" departSpeed="10.00" departDelay="0.00" arrival="634.00" arrivalLane="-NS_0" arrivalPos="250.00" arrivalSpeed="17.65" duration="50.00" routeLength="509.40" waitingTime="0.00" waitingCount="0" stopTime="0.00" timeLoss="20.53" rerouteNo="0" devices="tripinfo_S2N_66" vType="ego_car" speedFactor="0.88" vaporized=""/>
    <tripinfo id="S2N_68" depart="596.00" departLane="SN_0" departPos="5.00" departSpeed="10.00" departDelay="0.00" arrival="636.00" arrivalLane="-NS_0" arrivalPos="250.00" arrivalSpeed="18.29" duration="40.00" routeLength="509.40" waitingTime="0.00" waitingCount="0" stopTime="0.00" timeLoss="11.35" rerouteNo="0" devices="tripinfo_S2N_68" vType="ego_car" speedFactor="0.91" vaporized=""/>
    <tripinfo id="S2N_69" depart="609.00" departLane="SN_0" departPos="5.00" departSpeed="10.00" departDelay="0.00" arrival="638.00" arrivalLane="-NS_0" arrivalPos="250.00" arrivalSpeed="20.00" duration="29.00" routeLength="509.40" waitingTime="0.00" waitingCount="0" stopTime="0.00" timeLoss="2.58" rerouteNo="0" devices="tripinfo_S2N_69" vType="ego_car" speedFactor="1.04" vaporized=""/>
    <tripinfo id="E2W_70" depart="620.00" departLane="EW_0" departPos="5.00" departSpeed="10.00" departDelay="0.00" arrival="662.00" arrivalLane="-WE_0" arrivalPos="250.00" arrivalSpeed="20.00" duration="42.00" routeLength="509.40" waitingTime="7.00" waitingCount="1" stopTime="0.00" timeLoss="16.22" rerouteNo="0" devices="tripinfo_E2W_70" vType="ego_car" speedFactor="1.02" vaporized=""/>
    <tripinfo id="E2W_72" depart="640.00" departLane="EW_0" departPos="5.00" departSpeed="10.00" departDelay="0.00" arrival="668.00" arrivalLane="-WE_0" arrivalPos="250.00" arrivalSpeed="19.46" duration="28.00" routeLength="509.40" waitingTime="0.00" waitingCount="0" stopTime="0.00" timeLoss="1.42" rerouteNo="0" devices="tripinfo_E2W_72" vType="ego_car" speedFactor="0.97" vaporized=""/>
    <tripinfo id="E2W_73" depart="644.00" departLane="EW_0" departPos="5.00" departSpeed="10.00" departDelay="0.00" arrival="673.00" arrivalLane="-WE_0" arrivalPos="250.00" arrivalSpeed="18.80" duration="29.00" routeLength="509.40" waitingTime="0.00" waitingCount="0" stopTime="0.00" timeLoss="1.00" rerouteNo="0" devices="tripinfo_E2W_73" vType="ego_car" speedFactor="0.94" vaporized=""/>
    <tripinfo id="E2W_76" depart="649.00" departLane="EW_0" departPos="5.00" departSpeed="10.00" departDelay="0.00" arrival="677.00" arrivalLane="-WE_0" arrivalPos="250.00" arrivalSpeed="19.70" duration="28.00" routeLength="509.40" waitingTime="0.00" waitingCount="0" stopTime="0.00" timeLoss="1.31" rerouteNo="0" devices="tripinfo_E2W_76" vType="ego_car" speedFactor="0.98" vaporized=""/>