<?xml version="1.0" encoding="UTF-8"?>

<!-- generated on 2023-04-13 20:38:58 by Eclipse SUMO sumo Version 1.13.0
<configuration xmlns:xsi="http://www.w3.org/2001/XMLSchema-instance" xsi:noNamespaceSchemaLocation="http://sumo.dlr.de/xsd/sumoConfiguration.xsd">

    <input>
        <net-file value="/home/yuwz/tmp/graduation_design/rou_net/intersection.net.xml"/>
        <route-files value="/home/yuwz/tmp/graduation_design/rou_net/intersection27.rou.xml"/>
    </input>

    <output>
        <tripinfo-output value="/home/yuwz/tmp/graduation_design/rou_net/tripinfo.xml"/>
    </output>

    <time>
        <begin value="0"/>
        <end value="3600"/>
        <step-length value="1"/>
    </time>

    <processing>
        <waiting-time-memory value="3600"/>
    </processing>

    <report>
        <no-step-log value="true"/>
    </report>

    <traci_server>
        <remote-port value="36471"/>
    </traci_server>

    <gui_only>
        <tracker-interval value="1"/>
    </gui_only>

</configuration>
-->

<tripinfos xmlns:xsi="http://www.w3.org/2001/XMLSchema-instance" xsi:noNamespaceSchemaLocation="http://sumo.dlr.de/xsd/tripinfo_file.xsd">
    <tripinfo id="W2E_2" depart="85.00" departLane="WE_0" departPos="5.00" departSpeed="10.00" departDelay="0.00" arrival="204.00" arrivalLane="-EW_0" arrivalPos="250.00" arrivalSpeed="18.77" duration="119.00" routeLength="509.40" waitingTime="0.00" waitingCount="0" stopTime="0.00" timeLoss="91.33" rerouteNo="0" devices="tripinfo_W2E_2" vType="ego_car" speedFactor="0.94" vaporized=""/>
    <tripinfo id="W2E_4" depart="105.00" departLane="WE_0" departPos="5.00" departSpeed="10.00" departDelay="0.00" arrival="211.00" arrivalLane="-EW_0" arrivalPos="250.00" arrivalSpeed="20.00" duration="106.00" routeLength="509.40" waitingTime="0.00" waitingCount="0" stopTime="0.00" timeLoss="80.42" rerouteNo="0" devices="tripinfo_W2E_4" vType="ego_car" speedFactor="1.08" vaporized=""/>
    <tripinfo id="N2S_1" depart="74.00" departLane="NS_0" departPos="5.00" departSpeed="10.00" departDelay="0.00" arrival="220.00" arrivalLane="-SN_0" arrivalPos="250.00" arrivalSpeed="20.00" duration="146.00" routeLength="509.40" waitingTime="23.00" waitingCount="3" stopTime="0.00" timeLoss="119.70" rerouteNo="0" devices="tripinfo_N2S_1" vType="ego_car" speedFactor="1.06" vaporized=""/>
    <tripinfo id="N2S_3" depart="91.00" departLane="NS_0" departPos="5.00" departSpeed="10.00" departDelay="0.00" arrival="223.00" arrivalLane="-SN_0" arrivalPos="250.00" arrivalSpeed="20.00" duration="132.00" routeLength="509.40" waitingTime="19.00" waitingCount="2" stopTime="0.00" timeLoss="106.38" rerouteNo="0" devices="tripinfo_N2S_3" vType="ego_car" speedFactor="1.01" vaporized=""/>
    <tripinfo id="S2N_7" depart="118.00" departLane="SN_0" departPos="5.00" departSpeed="10.00" departDelay="0.00" arrival="237.00" arrivalLane="-NS_0" arrivalPos="250.00" arrivalSpeed="20.00" duration="119.00" routeLength="509.40" waitingTime="1.00" waitingCount="1" stopTime="0.00" timeLoss="92.62" rerouteNo="0" devices="tripinfo_S2N_7" vType="ego_car" speedFactor="1.05" vaporized=""/>
    <tripinfo id="N2S_8" depart="126.00" departLane="NS_0" departPos="5.00" departSpeed="10.00" departDelay="0.00" arrival="250.00" arrivalLane="-SN_0" arrivalPos="250.00" arrivalSpeed="17.72" duration="124.00" routeLength="509.40" waitingTime="1.00" waitingCount="1" stopTime="0.00" timeLoss="94.43" rerouteNo="0" devices="tripinfo_N2S_8" vType="ego_car" speedFactor="0.89" vaporized=""/>
    <tripinfo id="W2E_5" depart="110.00" departLane="WE_0" departPos="5.00" departSpeed="10.00" departDelay="0.00" arrival="254.00" arrivalLane="-EW_0" arrivalPos="250.00" arrivalSpeed="20.00" duration="144.00" routeLength="509.40" waitingTime="37.00" waitingCount="2" stopTime="0.00" timeLoss="117.82" rerouteNo="0" devices="tripinfo_W2E_5" vType="ego_car" speedFactor="1.03" vaporized=""/>
    <tripinfo id="W2E_6" depart="116.00" departLane="WE_0" departPos="5.00" departSpeed="10.00" departDelay="1.00" arrival="259.00" arrivalLane="-EW_0" arrivalPos="250.00" arrivalSpeed="16.62" duration="143.00" routeLength="509.40" waitingTime="34.00" waitingCount="4" stopTime="0.00" timeLoss="111.70" rerouteNo="0" devices="tripinfo_W2E_6" vType="ego_car" speedFactor="0.83" vaporized=""/>
    <tripinfo id="W2E_9" depart="142.00" departLane="WE_0" departPos="5.00" departSpeed="10.00" departDelay="0.00" arrival="261.00" arrivalLane="-EW_0" arrivalPos="250.00" arrivalSpeed="18.76" duration="119.00" routeLength="509.40" waitingTime="31.00" waitingCount="3" stopTime="0.00" timeLoss="91.00" rerouteNo="0" devices="tripinfo_W2E_9" vType="ego_car" speedFactor="0.94" vaporized=""/>
    <tripinfo id="N2S_10" depart="145.00" departLane="NS_0" departPos="5.00" departSpeed="10.00" departDelay="0.00" arrival="289.00" arrivalLane="-SN_0" arrivalPos="250.00" arrivalSpeed="17.14" duration="144.00" routeLength="509.40" waitingTime="36.00" waitingCount="3" stopTime="0.00" timeLoss="114.23" rerouteNo="0" devices="tripinfo_N2S_10" vType="ego_car" speedFactor="0.86" vaporized=""/>
    <tripinfo id="N2S_12" depart="166.00" departLane="NS_0" departPos="5.00" departSpeed="10.00" departDelay="0.00" arrival="291.00" arrivalLane="-SN_0" arrivalPos="250.00" arrivalSpeed="20.00" duration="125.00" routeLength="509.40" waitingTime="27.00" waitingCount="2" stopTime="0.00" timeLoss="99.33" rerouteNo="0" devices="tripinfo_N2S_12" vType="ego_car" speedFactor="1.03" vaporized=""/>
    <tripinfo id="N2S_13" depart="179.00" departLane="NS_0" departPos="5.00" departSpeed="10.00" departDelay="0.00" arrival="294.00" arrivalLane="-SN_0" arrivalPos="250.00" arrivalSpeed="20.00" duration="115.00" routeLength="509.40" waitingTime="24.00" waitingCount="1" stopTime="0.00" timeLoss="88.86" rerouteNo="0" devices="tripinfo_N2S_13" vType="ego_car" speedFactor="1.05" vaporized=""/>
    <tripinfo id="W2E_11" depart="159.00" departLane="WE_0" departPos="5.00" departSpeed="10.00" departDelay="0.00" arrival="322.00" arrivalLane="-EW_0" arrivalPos="250.00" arrivalSpeed="20.00" duration="163.00" routeLength="509.40" waitingTime="33.00" waitingCount="4" stopTime="0.00" timeLoss="136.83" rerouteNo="0" devices="tripinfo_W2E_11" vType="ego_car" speedFactor="1.09" vaporized=""/>
    <tripinfo id="W2E_16" depart="213.00" departLane="WE_0" departPos="5.00" departSpeed="10.00" departDelay="0.00" arrival="324.00" arrivalLane="-EW_0" arrivalPos="250.00" arrivalSpeed="18.54" duration="111.00" routeLength="509.40" waitingTime="0.00" waitingCount="0" stopTime="0.00" timeLoss="83.51" rerouteNo="0" devices="tripinfo_W2E_16" vType="ego_car" speedFactor="0.93" vaporized=""/>
    <tripinfo id="S2N_14" depart="209.00" departLane="SN_0" departPos="5.00" departSpeed="10.00" departDelay="0.00" arrival="356.00" arrivalLane="-NS_0" arrivalPos="250.00" arrivalSpeed="20.00" duration="147.00" routeLength="509.40" waitingTime="30.00" waitingCount="2" stopTime="0.00" timeLoss="120.76" rerouteNo="0" devices="tripinfo_S2N_14" vType="ego_car" speedFactor="1.12" vaporized=""/>
    <tripinfo id="S2N_15" depart="221.00" departLane="SN_0" departPos="5.00" departSpeed="10.00" departDelay="9.00" arrival="359.00" arrivalLane="-NS_0" arrivalPos="250.00" arrivalSpeed="19.82" duration="138.00" routeLength="509.40" waitingTime="23.00" waitingCount="4" stopTime="0.00" timeLoss="111.53" rerouteNo="0" devices="tripinfo_S2N_15" vType="ego_car" speedFactor="0.99" vaporized=""/>
    <tripinfo id="N2S_19" depart="246.00" departLane="NS_0" departPos="5.00" departSpeed="10.00" departDelay="0.00" arrival="364.00" arrivalLane="-SN_0" arrivalPos="250.00" arrivalSpeed="18.72" duration="118.00" routeLength="509.40" waitingTime="1.00" waitingCount="1" stopTime="0.00" timeLoss="89.92" rerouteNo="0" devices="tripinfo_N2S_19" vType="ego_car" speedFactor="0.94" vaporized=""/>
    <tripinfo id="S2N_17" depart="236.00" departLane="SN_0" departPos="5.00" departSpeed="10.00" departDelay="0.00" arrival="365.00" arrivalLane="-NS_0" arrivalPos="250.00" arrivalSpeed="17.57" duration="129.00" routeLength="509.40" waitingTime="20.00" waitingCount="3" stopTime="0.00" timeLoss="99.46" rerouteNo="0" devices="tripinfo_S2N_17" vType="ego_car" speedFactor="0.88" vaporized=""/>
    <tripinfo id="N2S_20" depart="256.00" departLane="NS_0" departPos="5.00" departSpeed="10.00" departDelay="2.00" arrival="366.00" arrivalLane="-SN_0" arrivalPos="250.00" arrivalSpeed="20.00" duration="110.00" routeLength="509.40" waitingTime="1.00" waitingCount="1" stopTime="0.00" timeLoss="84.49" rerouteNo="0" devices="tripinfo_N2S_20" vType="ego_car" speedFactor="1.16" vaporized=""/>
    <tripinfo id="S2N_18" depart="246.00" departLane="SN_0" departPos="5.00" departSpeed="10.00" departDelay="2.00" arrival="369.00" arrivalLane="-NS_0" arrivalPos="250.00" arrivalSpeed="18.83" duration="123.00" routeLength="509.40" waitingTime="18.00" waitingCount="2" stopTime="0.00" timeLoss="95.28" rerouteNo="0" devices="tripinfo_S2N_18" vType="ego_car" speedFactor="0.94" vaporized=""/>
    <tripinfo id="S2N_21" depart="259.00" departLane="SN_0" departPos="5.00" departSpeed="10.00" departDelay="0.00" arrival="373.00" arrivalLane="-NS_0" arrivalPos="250.00" arrivalSpeed="20.00" duration="114.00" routeLength="509.40" waitingTime="0.00" waitingCount="0" stopTime="0.00" timeLoss="88.49" rerouteNo="0" devices="tripinfo_S2N_21" vType="ego_car" speedFactor="1.02" vaporized=""/>
    <tripinfo id="S2N_22" depart="268.00" departLane="SN_0" departPos="5.00" departSpeed="10.00" departDelay="8.00" arrival="376.00" arrivalLane="-NS_0" arrivalPos="250.00" arrivalSpeed="20.00" duration="108.00" routeLength="509.40" waitingTime="1.00" waitingCount="1" stopTime="0.00" timeLoss="82.42" rerouteNo="0" devices="tripinfo_S2N_22" vType="ego_car" speedFactor="1.01" vaporized=""/>
    <tripinfo id="S2N_26" depart="289.00" departLane="SN_0" departPos="5.00" departSpeed="10.00" departDelay="0.00" arrival="383.00" arrivalLane="-NS_0" arrivalPos="250.00" arrivalSpeed="17.45" duration="94.00" routeLength="509.40" waitingTime="1.00" waitingCount="1" stopTime="0.00" timeLoss="64.46" rerouteNo="0" devices="tripinfo_S2N_26" vType="ego_car" speedFactor="0.87" vaporized=""/>
    <tripinfo id="S2N_27" depart="299.00" departLane="SN_0" departPos="5.00" departSpeed="10.00" departDelay="8.00" arrival="386.00" arrivalLane="-NS_0" arrivalPos="250.00" arrivalSpeed="18.34" duration="87.00" routeLength="509.40" waitingTime="0.00" waitingCount="0" stopTime="0.00" timeLoss="58.47" rerouteNo="0" devices="tripinfo_S2N_27" vType="ego_car" speedFactor="0.92" vaporized=""/>
    <tripinfo id="W2E_23" depart="265.00" departLane="WE_0" departPos="5.00" departSpeed="10.00" departDelay="0.00" arrival="390.00" arrivalLane="-EW_0" arrivalPos="250.00" arrivalSpeed="19.50" duration="125.00" routeLength="509.40" waitingTime="8.00" waitingCount="5" stopTime="0.00" timeLoss="98.43" rerouteNo="0" devices="tripinfo_W2E_23" vType="ego_car" speedFactor="0.97" vaporized=""/>
    <tripinfo id="W2E_24" depart="274.00" departLane="WE_0" departPos="5.00" departSpeed="10.00" departDelay="0.00" arrival="412.00" arrivalLane="-EW_0" arrivalPos="250.00" arrivalSpeed="17.79" duration="138.00" routeLength="509.40" waitingTime="8.00" waitingCount="8" stopTime="0.00" timeLoss="108.95" rerouteNo="0" devices="tripinfo_W2E_24" vType="ego_car" speedFactor="0.89" vaporized=""/>
    <tripinfo id="W2E_29" depart="301.00" departLane="WE_0" departPos="5.00" departSpeed="10.00" departDelay="0.00" arrival="417.00" arrivalLane="-EW_0" arrivalPos="250.00" arrivalSpeed="20.00" duration="116.00" routeLength="509.40" waitingTime="2.00" waitingCount="2" stopTime="0.00" timeLoss="89.62" rerouteNo="0" devices="tripinfo_W2E_29" vType="ego_car" speedFactor="1.13" vaporized=""/>
    <tripinfo id="S2N_32" depart="307.00" departLane="SN_0" departPos="5.00" departSpeed="10.00" departDelay="1.00" arrival="424.00" arrivalLane="-NS_0" arrivalPos="250.00" arrivalSpeed="20.00" duration="117.00" routeLength="509.40" waitingTime="20.00" waitingCount="2" stopTime="0.00" timeLoss="90.75" rerouteNo="0" devices="tripinfo_S2N_32" vType="ego_car" speedFactor="1.15" vaporized=""/>
    <tripinfo id="N2S_25" depart="277.00" departLane="NS_0" departPos="5.00" departSpeed="10.00" departDelay="0.00" arrival="426.00" arrivalLane="-SN_0" arrivalPos="250.00" arrivalSpeed="16.51" duration="149.00" routeLength="509.40" waitingTime="17.00" waitingCount="3" stopTime="0.00" timeLoss="117.52" rerouteNo="0" devices="tripinfo_N2S_25" vType="ego_car" speedFactor="0.83" vaporized=""/>
    <tripinfo id="S2N_33" depart="313.00" departLane="SN_0" departPos="5.00" departSpeed="10.00" departDelay="7.00" arrival="427.00" arrivalLane="-NS_0" arrivalPos="250.00" arrivalSpeed="20.00" duration="114.00" routeLength="509.40" waitingTime="17.00" waitingCount="3" stopTime="0.00" timeLoss="88.49" rerouteNo="0" devices="tripinfo_S2N_33" vType="ego_car" speedFactor="1.01" vaporized=""/>
    <tripinfo id="N2S_28" depart="300.00" departLane="NS_0" departPos="5.00" departSpeed="10.00" departDelay="0.00" arrival="428.00" arrivalLane="-SN_0" arrivalPos="250.00" arrivalSpeed="18.98" duration="128.00" routeLength="509.40" waitingTime="12.00" waitingCount="5" stopTime="0.00" timeLoss="100.54" rerouteNo="0" devices="tripinfo_N2S_28" vType="ego_car" speedFactor="0.95" vaporized=""/>
    <tripinfo id="N2S_30" depart="308.00" departLane="NS_0" departPos="5.00" departSpeed="10.00" departDelay="4.00" arrival="431.00" arrivalLane="-SN_0" arrivalPos="250.00" arrivalSpeed="18.63" duration="123.00" routeLength="509.40" waitingTime="7.00" waitingCount="4" stopTime="0.00" timeLoss="95.35" rerouteNo="0" devices="tripinfo_N2S_30" vType="ego_car" speedFactor="0.93" vaporized=""/>
    <tripinfo id="S2N_34" depart="317.00" departLane="SN_0" departPos="5.00" departSpeed="10.00" departDelay="6.00" arrival="433.00" arrivalLane="-NS_0" arrivalPos="250.00" arrivalSpeed="20.00" duration="116.00" routeLength="509.40" waitingTime="16.00" waitingCount="3" stopTime="0.00" timeLoss="90.36" rerouteNo="0" devices="tripinfo_S2N_34" vType="ego_car" speedFactor="1.17" vaporized=""/>
    <tripinfo id="N2S_35" depart="319.00" departLane="NS_0" departPos="5.00" departSpeed="10.00" departDelay="0.00" arrival="435.00" arrivalLane="-SN_0" arrivalPos="250.00" arrivalSpeed="19.90" duration="116.00" routeLength="509.40" waitingTime="3.00" waitingCount="3" stopTime="0.00" timeLoss="89.93" rerouteNo="0" devices="tripinfo_N2S_35" vType="ego_car" speedFactor="0.99" vaporized=""/>
    <tripinfo id="W2E_31" depart="310.00" departLane="WE_0" departPos="5.00" departSpeed="10.00" departDelay="6.00" arrival="458.00" arrivalLane="-EW_0" arrivalPos="250.00" arrivalSpeed="20.00" duration="148.00" routeLength="509.40" waitingTime="29.00" waitingCount="3" stopTime="0.00" timeLoss="121.83" rerouteNo="0" devices="tripinfo_W2E_31" vType="ego_car" speedFactor="1.18" vaporized=""/>
    <tripinfo id="E2W_37" depart="336.00" departLane="EW_0" departPos="5.00" departSpeed="10.00" departDelay="0.00" arrival="458.00" arrivalLane="-WE_0" arrivalPos="250.00" arrivalSpeed="19.46" duration="122.00" routeLength="509.40" waitingTime="16.00" waitingCount="2" stopTime="0.00" timeLoss="95.34" rerouteNo="0" devices="tripinfo_E2W_37" vType="ego_car" speedFactor="0.97" vaporized=""/>
    <tripinfo id="W2E_36" depart="335.00" departLane="WE_0" departPos="5.00" departSpeed="10.00" departDelay="0.00" arrival="461.00" arrivalLane="-EW_0" arrivalPos="250.00" arrivalSpeed="20.00" duration="126.00" routeLength="509.40" waitingTime="24.00" waitingCount="2" stopTime="0.00" timeLoss="99.82" rerouteNo="0" devices="tripinfo_W2E_36" vType="ego_car" speedFactor="1.02" vaporized=""/>
    <tripinfo id="W2E_41" depart="353.00" departLane="WE_0" departPos="5.00" departSpeed="10.00" departDelay="0.00" arrival="481.00" arrivalLane="-EW_0" arrivalPos="250.00" arrivalSpeed="20.00" duration="128.00" routeLength="509.40" waitingTime="2.00" waitingCount="2" stopTime="0.00" timeLoss="102.47" rerouteNo="0" devices="tripinfo_W2E_41" vType="ego_car" speedFactor="1.03" vaporized=""/>
    <tripinfo id="W2E_44" depart="388.00" departLane="WE_0" departPos="5.00" departSpeed="10.00" departDelay="0.00" arrival="484.00" arrivalLane="-EW_0" arrivalPos="250.00" arrivalSpeed="20.00" duration="96.00" routeLength="509.40" waitingTime="0.00" waitingCount="0" stopTime="0.00" timeLoss="70.47" rerouteNo="0" devices="tripinfo_W2E_44" vType="ego_car" speedFactor="1.04" vaporized=""/>
    <tripinfo id="S2N_38" depart="338.00" departLane="SN_0" departPos="5.00" departSpeed="10.00" departDelay="0.00" arrival="492.00" arrivalLane="-NS_0" arrivalPos="250.00" arrivalSpeed="20.00" duration="154.00" routeLength="509.40" waitingTime="27.00" waitingCount="2" stopTime="0.00" timeLoss="127.71" rerouteNo="0" devices="tripinfo_S2N_38" vType="ego_car" speedFactor="1.18" vaporized=""/>
    <tripinfo id="N2S_40" depart="352.00" departLane="NS_0" departPos="5.00" departSpeed="10.00" departDelay="0.00" arrival="493.00" arrivalLane="-SN_0" arrivalPos="250.00" arrivalSpeed="18.01" duration="141.00" routeLength="509.40" waitingTime="17.00" waitingCount="3" stopTime="0.00" timeLoss="112.02" rerouteNo="0" devices="tripinfo_N2S_40" vType="ego_car" speedFactor="0.90" vaporized=""/>
    <tripinfo id="S2N_39" depart="348.00" departLane="SN_0" departPos="5.00" departSpeed="10.00" departDelay="0.00" arrival="495.00" arrivalLane="-NS_0" arrivalPos="250.00" arrivalSpeed="20.00" duration="147.00" routeLength="509.40" waitingTime="25.00" waitingCount="4" stopTime="0.00" timeLoss="121.26" rerouteNo="0" devices="tripinfo_S2N_39" vType="ego_car" speedFactor="1.10" vaporized=""/>
    <tripinfo id="N2S_42" depart="363.00" departLane="NS_0" departPos="5.00" departSpeed="10.00" departDelay="3.00" arrival="497.00" arrivalLane="-SN_0" arrivalPos="250.00" arrivalSpeed="19.14" duration="134.00" routeLength="509.40" waitingTime="10.00" waitingCount="3" stopTime="0.00" timeLoss="106.96" rerouteNo="0" devices="tripinfo_N2S_42" vType="ego_car" speedFactor="0.96" vaporized=""/>
    <tripinfo id="N2S_43" depart="382.00" departLane="NS_0" departPos="5.00" departSpeed="10.00" departDelay="0.00" arrival="501.00" arrivalLane="-SN_0" arrivalPos="250.00" arrivalSpeed="20.00" duration="119.00" routeLength="509.40" waitingTime="5.00" waitingCount="3" stopTime="0.00" timeLoss="93.37" rerouteNo="0" devices="tripinfo_N2S_43" vType="ego_car" speedFactor="1.09" vaporized=""/>
    <tripinfo id="S2N_45" depart="389.00" departLane="SN_0" departPos="5.00" departSpeed="10.00" departDelay="0.00" arrival="519.00" arrivalLane="-NS_0" arrivalPos="250.00" arrivalSpeed="20.00" duration="130.00" routeLength="509.40" waitingTime="3.00" waitingCount="3" stopTime="0.00" timeLoss="103.90" rerouteNo="0" devices="tripinfo_S2N_45" vType="ego_car" speedFactor="1.04" vaporized=""/>
    <tripinfo id="W2E_46" depart="397.00" departLane="WE_0" departPos="5.00" departSpeed="10.00" departDelay="7.00" arrival="526.00" arrivalLane="-EW_0" arrivalPos="250.00" arrivalSpeed="20.00" duration="129.00" routeLength="509.40" waitingTime="36.00" waitingCount="2" stopTime="0.00" timeLoss="102.77" rerouteNo="0" devices="tripinfo_W2E_46" vType="ego_car" speedFactor="1.09" vaporized=""/>
    <tripinfo id="W2E_47" depart="407.00" departLane="WE_0" departPos="5.00" departSpeed="10.00" departDelay="12.00" arrival="528.00" arrivalLane="-EW_0" arrivalPos="250.00" arrivalSpeed="19.95" duration="121.00" routeLength="509.40" waitingTime="28.00" waitingCount="2" stopTime="0.00" timeLoss="95.37" rerouteNo="0" devices="tripinfo_W2E_47" vType="ego_car" speedFactor="1.00" vaporized=""/>
    <tripinfo id="W2E_48" depart="412.00" departLane="WE_0" departPos="5.00" departSpeed="10.00" departDelay="11.00" arrival="536.00" arrivalLane="-EW_0" arrivalPos="250.00" arrivalSpeed="18.01" duration="124.00" routeLength="509.40" waitingTime="23.00" waitingCount="1" stopTime="0.00" timeLoss="94.91" rerouteNo="0" devices="tripinfo_W2E_48" vType="ego_car" speedFactor="0.90" vaporized=""/>
    <tripinfo id="E2W_50" depart="421.00" departLane="EW_0" departPos="5.00" departSpeed="10.00" departDelay="0.00" arrival="537.00" arrivalLane="-WE_0" arrivalPos="250.00" arrivalSpeed="17.01" duration="116.00" routeLength="509.40" waitingTime="3.00" waitingCount="3" stopTime="0.00" timeLoss="85.63" rerouteNo="0" devices="tripinfo_E2W_50" vType="ego_car" speedFactor="0.85" vaporized=""/>
    <tripinfo id="S2N_49" depart="417.00" departLane="SN_0" departPos="5.00" departSpeed="10.00" departDelay="0.00" arrival="561.00" arrivalLane="-NS_0" arrivalPos="250.00" arrivalSpeed="17.54" duration="144.00" routeLength="509.40" waitingTime="19.00" waitingCount="1" stopTime="0.00" timeLoss="114.66" rerouteNo="0" devices="tripinfo_S2N_49" vType="ego_car" speedFactor="0.88" vaporized=""/>
    <tripinfo id="N2S_51" depart="421.00" departLane="NS_0" departPos="5.00" departSpeed="10.00" departDelay="0.00" arrival="562.00" arrivalLane="-SN_0" arrivalPos="250.00" arrivalSpeed="17.10" duration="141.00" routeLength="509.40" waitingTime="17.00" waitingCount="1" stopTime="0.00" timeLoss="110.22" rerouteNo="0" devices="tripinfo_N2S_51" vType="ego_car" speedFactor="0.85" vaporized=""/>
    <tripinfo id="S2N_52" depart="427.00" departLane="SN_0" departPos="5.00" departSpeed="10.00" departDelay="6.00" arrival="564.00" arrivalLane="-NS_0" arrivalPos="250.00" arrivalSpeed="20.00" duration="137.00" routeLength="509.40" waitingTime="15.00" waitingCount="3" stopTime="0.00" timeLoss="111.11" rerouteNo="0" devices="tripinfo_S2N_52" vType="ego_car" speedFactor="1.17" vaporized=""/>
    <tripinfo id="N2S_54" depart="438.00" departLane="NS_0" departPos="5.00" departSpeed="10.00" departDelay="0.00" arrival="564.00" arrivalLane="-SN_0" arrivalPos="250.00" arrivalSpeed="20.00" duration="126.00" routeLength="509.40" waitingTime="13.00" waitingCount="2" stopTime="0.00" timeLoss="100.12" rerouteNo="0" devices="tripinfo_N2S_54" vType="ego_car" speedFactor="1.10" vaporized=""/>
    <tripinfo id="S2N_53" depart="435.00" departLane="SN_0" departPos="5.00" departSpeed="10.00" departDelay="13.00" arrival="568.00" arrivalLane="-NS_0" arrivalPos="250.00" arrivalSpeed="20.00" duration="133.00" routeLength="509.40" waitingTime="10.00" waitingCount="2" stopTime="0.00" timeLoss="106.99" rerouteNo="0" devices="tripinfo_S2N_53" vType="ego_car" speedFactor="1.02" vaporized=""/>
    <tripinfo id="N2S_57" depart="449.00" departLane="NS_0" departPos="5.00" departSpeed="10.00" departDelay="0.00" arrival="569.00" arrivalLane="-SN_0" arrivalPos="250.00" arrivalSpeed="17.98" duration="120.00" routeLength="509.40" waitingTime="11.00" waitingCount="2" stopTime="0.00" timeLoss="91.65" rerouteNo="0" devices="tripinfo_N2S_57" vType="ego_car" speedFactor="0.90" vaporized=""/>
    <tripinfo id="N2S_59" depart="456.00" departLane="NS_0" departPos="5.00" departSpeed="10.00" departDelay="0.00" arrival="573.00" arrivalLane="-SN_0" arrivalPos="250.00" arrivalSpeed="20.00" duration="117.00" routeLength="509.40" waitingTime="11.00" waitingCount="4" stopTime="0.00" timeLoss="91.04" rerouteNo="0" devices="tripinfo_N2S_59" vType="ego_car" speedFactor="1.02" vaporized=""/>
    <tripinfo id="S2N_55" depart="443.00" departLane="SN_0" departPos="5.00" departSpeed="10.00" departDelay="4.00" arrival="574.00" arrivalLane="-NS_0" arrivalPos="250.00" arrivalSpeed="20.00" duration="131.00" routeLength="509.40" waitingTime="11.00" waitingCount="3" stopTime="0.00" timeLoss="104.63" rerouteNo="0" devices="tripinfo_S2N_55" vType="ego_car" speedFactor="1.00" vaporized=""/>
    <tripinfo id="S2N_58" depart="450.00" departLane="SN_0" departPos="5.00" departSpeed="10.00" departDelay="0.00" arrival="577.00" arrivalLane="-NS_0" arrivalPos="250.00" arrivalSpeed="20.00" duration="127.00" routeLength="509.40" waitingTime="8.00" waitingCount="3" stopTime="0.00" timeLoss="100.65" rerouteNo="0" devices="tripinfo_S2N_58" vType="ego_car" speedFactor="1.14" vaporized=""/>
    <tripinfo id="S2N_63" depart="469.00" departLane="SN_0" departPos="5.00" departSpeed="10.00" departDelay="0.00" arrival="582.00" arrivalLane="-NS_0" arrivalPos="250.00" arrivalSpeed="20.00" duration="113.00" routeLength="509.40" waitingTime="1.00" waitingCount="1" stopTime="0.00" timeLoss="87.26" rerouteNo="0" devices="tripinfo_S2N_63" vType="ego_car" speedFactor="1.02" vaporized=""/>
    <tripinfo id="W2E_56" depart="447.00" departLane="WE_0" departPos="5.00" departSpeed="10.00" departDelay="0.00" arrival="594.00" arrivalLane="-EW_0" arrivalPos="250.00" arrivalSpeed="19.92" duration="147.00" routeLength="509.40" waitingTime="25.00" waitingCount="1" stopTime="0.00" timeLoss="120.59" rerouteNo="0" devices="tripinfo_W2E_56" vType="ego_car" speedFactor="1.00" vaporized=""/>
    <tripinfo id="E2W_62" depart="464.00" departLane="EW_0" departPos="5.00" departSpeed="10.00" departDelay="0.00" arrival="594.00" arrivalLane="-WE_0" arrivalPos="250.00" arrivalSpeed="20.00" duration="130.00" routeLength="509.40" waitingTime="17.00" waitingCount="1" stopTime="0.00" timeLoss="103.82" rerouteNo="0" devices="tripinfo_E2W_62" vType="ego_car" speedFactor="1.12" vaporized=""/>
    <tripinfo id="W2E_60" depart="456.00" departLane="WE_0" departPos="5.00" departSpeed="10.00" departDelay="0.00" arrival="598.00" arrivalLane="-EW_0" arrivalPos="250.00" arrivalSpeed="19.39" duration="142.00" routeLength="509.40" waitingTime="23.00" waitingCount="2" stopTime="0.00" timeLoss="115.68" rerouteNo="0" devices="tripinfo_W2E_60" vType="ego_car" speedFactor="0.97" vaporized=""/>
    <tripinfo id="W2E_61" depart="466.00" departLane="WE_0" departPos="5.00" departSpeed="10.00" departDelay="4.00" arrival="602.00" arrivalLane="-EW_0" arrivalPos="250.00" arrivalSpeed="20.00" duration="136.00" routeLength="509.40" waitingTime="21.00" waitingCount="2" stopTime="0.00" timeLoss="110.45" rerouteNo="0" devices="tripinfo_W2E_61" vType="ego_car" speedFactor="1.08" vaporized=""/>
    <tripinfo id="W2E_67" depart="488.00" departLane="WE_0" departPos="5.00" departSpeed="10.00" departDelay="0.00" arrival="606.00" arrivalLane="-EW_0" arrivalPos="250.00" arrivalSpeed="18.14" duration="118.00" routeLength="509.40" waitingTime="3.00" waitingCount="3" stopTime="0.00" timeLoss="89.77" rerouteNo="0" devices="tripinfo_W2E_67" vType="ego_car" speedFactor="0.91" vaporized=""/>
    <tripinfo id="S2N_64" depart="476.00" departLane="SN_0" departPos="5.00" departSpeed="10.00" departDelay="3.00" arrival="628.00" arrivalLane="-NS_0" arrivalPos="250.00" arrivalSpeed="19.74" duration="152.00" routeLength="509.40" waitingTime="26.00" waitingCount="3" stopTime="0.00" timeLoss="125.59" rerouteNo="0" devices="tripinfo_S2N_64" vType="ego_car" speedFactor="0.99" vaporized=""/>
    <tripinfo id="N2S_65" depart="474.00" departLane="NS_0" departPos="5.00" departSpeed="10.00" departDelay="0.00" arrival="628.00" arrivalLane="-SN_0" arrivalPos="250.00" arrivalSpeed="18.75" duration="154.00" routeLength="509.40" waitingTime="29.00" waitingCount="3" stopTime="0.00" timeLoss="126.66" rerouteNo="0" devices="tripinfo_N2S_65" vType="ego_car" speedFactor="0.94" vaporized=""/>
    <tripinfo id="N2S_73" depart="500.00" departLane="NS_0" departPos="5.00" departSpeed="10.00" departDelay="0.00" arrival="631.00" arrivalLane="-SN_0" arrivalPos="250.00" arrivalSpeed="18.80" duration="131.00" routeLength="509.40" waitingTime="24.00" waitingCount="3" stopTime="0.00" timeLoss="103.50" rerouteNo="0" devices="tripinfo_N2S_73" vType="ego_car" speedFactor="0.94" vaporized=""/>
    <tripinfo id="S2N_66" depart="487.00" departLane="SN_0" departPos="5.00" departSpeed="10.00" departDelay="6.00" arrival="635.00" arrivalLane="-NS_0" arrivalPos="250.00" arrivalSpeed="17.65" duration="148.00" routeLength="509.40" waitingTime="22.00" waitingCount="4" stopTime="0.00" timeLoss="118.21" rerouteNo="0" devices="tripinfo_S2N_66" vType="ego_car" speedFactor="0.88" vaporized=""/>
    <tripinfo id="N2S_76" depart="510.00" departLane="NS_0" departPos="5.00" departSpeed="10.00" departDelay="0.00" arrival="635.00" arrivalLane="-SN_0" arrivalPos="250.00" arrivalSpeed="19.70" duration="125.00" routeLength="509.40" waitingTime="20.00" waitingCount="1" stopTime="0.00" timeLoss="98.46" rerouteNo="0" devices="tripinfo_N2S_76" vType="ego_car" speedFactor="0.98" vaporized=""/>
    <tripinfo id="S2N_70" depart="495.00" departLane="SN_0" departPos="5.00" departSpeed="10.00" departDelay="3.00" arrival="637.00" arrivalLane="-NS_0" arrivalPos="250.00" arrivalSpeed="20.00" duration="142.00" routeLength="509.40" waitingTime="19.00" waitingCount="3" stopTime="0.00" timeLoss="115.78" rerouteNo="0" devices="tripinfo_S2N_70" vType="ego_car" speedFactor="1.02" vaporized=""/>
    <tripinfo id="S2N_71" depart="503.00" departLane="SN_0" departPos="5.00" departSpeed="10.00" departDelay="10.00" arrival="643.00" arrivalLane="-NS_0" arrivalPos="250.00" arrivalSpeed="20.00" duration="140.00" routeLength="509.40" waitingTime="15.00" waitingCount="3" stopTime="0.00" timeLoss="113.60" rerouteNo="0" devices="tripinfo_S2N_71" vType="ego_car" speedFactor="1.02" vaporized=""/>
    <tripinfo id="S2N_72" depart="510.00" departLane="SN_0" departPos="5.00" departSpeed="10.00" departDelay="13.00" arrival="647.00" arrivalLane="-NS_0" arrivalPos="250.00" arrivalSpeed="19.46" duration="137.00" routeLength="509.40" waitingTime="12.00" waitingCount="1" stopTime="0.00" timeLoss="110.64" rerouteNo="0" devices="tripinfo_S2N_72" vType="ego_car" speedFactor="0.97" vaporized=""/>
    <tripinfo id="E2W_77" depart="520.00" departLane="EW_0" departPos="5.00" departSpeed="10.00" departDelay="0.00" arrival="662.00" arrivalLane="-WE_0" arrivalPos="250.00" arrivalSpeed="20.00" duration="142.00" routeLength="509.40" waitingTime="33.00" waitingCount="2" stopTime="0.00" timeLoss="115.69" rerouteNo="0" devices="tripinfo_E2W_77" vType="ego_car" speedFactor="1.03" vaporized=""/>