<?xml version="1.0" encoding="UTF-8"?>

<!-- generated on 2023-04-17 16:28:43 by Eclipse SUMO sumo Version v1_16_0+0802-cb0bb8ac9af
<configuration xmlns:xsi="http://www.w3.org/2001/XMLSchema-instance" xsi:noNamespaceSchemaLocation="http://sumo.dlr.de/xsd/sumoConfiguration.xsd">

    <input>
        <net-file value="/home/yuwz/graduation_design/graduation_design/DDPG5/test_rou_net/intersection2.net.xml"/>
        <route-files value="/home/yuwz/graduation_design/graduation_design/DDPG5/test_rou_net/intersection1.rou.xml"/>
    </input>

    <output>
        <tripinfo-output value="/home/yuwz/graduation_design/graduation_design/DDPG5/test_rou_net/tripinfo.xml"/>
    </output>

    <time>
        <begin value="0"/>
        <end value="3600"/>
        <step-length value="1"/>
    </time>

    <processing>
        <waiting-time-memory value="3600"/>
    </processing>

    <report>
        <no-step-log value="true"/>
    </report>

    <traci_server>
        <remote-port value="60539"/>
    </traci_server>

</configuration>
-->

<tripinfos xmlns:xsi="http://www.w3.org/2001/XMLSchema-instance" xsi:noNamespaceSchemaLocation="http://sumo.dlr.de/xsd/tripinfo_file.xsd">
</tripinfos>
