<?xml version="1.0" encoding="UTF-8"?>

<!-- generated on 2023-04-12 20:22:56 by Eclipse SUMO sumo Version 1.13.0
<configuration xmlns:xsi="http://www.w3.org/2001/XMLSchema-instance" xsi:noNamespaceSchemaLocation="http://sumo.dlr.de/xsd/sumoConfiguration.xsd">

    <input>
        <net-file value="/home/pc10/sumo_workplace/DDPG5/test_rou_net/intersection2.net.xml"/>
        <route-files value="/home/pc10/sumo_workplace/DDPG5/test_rou_net/intersection1.rou.xml"/>
    </input>

    <output>
        <tripinfo-output value="/home/pc10/sumo_workplace/DDPG5/test_rou_net/tripinfo.xml"/>
    </output>

    <time>
        <begin value="0"/>
        <end value="3600"/>
        <step-length value="1"/>
    </time>

    <processing>
        <waiting-time-memory value="3600"/>
    </processing>

    <report>
        <no-step-log value="true"/>
    </report>

    <traci_server>
        <remote-port value="42747"/>
    </traci_server>

    <gui_only>
        <tracker-interval value="1"/>
    </gui_only>

</configuration>
-->

<tripinfos xmlns:xsi="http://www.w3.org/2001/XMLSchema-instance" xsi:noNamespaceSchemaLocation="http://sumo.dlr.de/xsd/tripinfo_file.xsd">
    <tripinfo id="W2E_1" depart="0.00" departLane="WE0_0" departPos="5.00" departSpeed="10.00" departDelay="0.00" arrival="31.00" arrivalLane="WE1_0" arrivalPos="292.80" arrivalSpeed="20.00" duration="31.00" routeLength="595.00" waitingTime="0.00" waitingCount="0" stopTime="0.00" timeLoss="1.23" rerouteNo="0" devices="tripinfo_W2E_1 battery_W2E_1" vType="ego_car" speedFactor="1.06" vaporized=""/>
    <tripinfo id="W2E_2" depart="3.00" departLane="WE0_0" departPos="5.00" departSpeed="10.00" departDelay="0.00" arrival="36.00" arrivalLane="WE1_0" arrivalPos="292.80" arrivalSpeed="18.77" duration="33.00" routeLength="595.00" waitingTime="0.00" waitingCount="0" stopTime="0.00" timeLoss="0.94" rerouteNo="0" devices="tripinfo_W2E_2 battery_W2E_2" vType="ego_car" speedFactor="0.94" vaporized=""/>
    <tripinfo id="W2E_3" depart="6.00" departLane="WE0_0" departPos="5.00" departSpeed="10.00" departDelay="0.00" arrival="38.00" arrivalLane="WE1_0" arrivalPos="292.80" arrivalSpeed="20.00" duration="32.00" routeLength="595.00" waitingTime="0.00" waitingCount="0" stopTime="0.00" timeLoss="1.96" rerouteNo="0" devices="tripinfo_W2E_3 battery_W2E_3" vType="ego_car" speedFactor="1.01" vaporized=""/>
    <tripinfo id="W2E_4" depart="9.00" departLane="WE0_0" departPos="5.00" departSpeed="10.00" departDelay="0.00" arrival="41.00" arrivalLane="WE1_0" arrivalPos="292.80" arrivalSpeed="20.00" duration="32.00" routeLength="595.00" waitingTime="0.00" waitingCount="0" stopTime="0.00" timeLoss="2.13" rerouteNo="0" devices="tripinfo_W2E_4 battery_W2E_4" vType="ego_car" speedFactor="1.08" vaporized=""/>
    <tripinfo id="W2E_5" depart="12.00" departLane="WE0_0" departPos="5.00" departSpeed="10.00" departDelay="0.00" arrival="45.00" arrivalLane="WE1_0" arrivalPos="292.80" arrivalSpeed="20.00" duration="33.00" routeLength="595.00" waitingTime="0.00" waitingCount="0" stopTime="0.00" timeLoss="2.38" rerouteNo="0" devices="tripinfo_W2E_5 battery_W2E_5" vType="ego_car" speedFactor="1.03" vaporized=""/>
    <tripinfo id="W2E_6" depart="15.00" departLane="WE0_0" departPos="5.00" departSpeed="10.00" departDelay="0.00" arrival="52.00" arrivalLane="WE1_0" arrivalPos="292.80" arrivalSpeed="16.62" duration="37.00" routeLength="595.00" waitingTime="0.00" waitingCount="0" stopTime="0.00" timeLoss="0.48" rerouteNo="0" devices="tripinfo_W2E_6 battery_W2E_6" vType="ego_car" speedFactor="0.83" vaporized=""/>
    <tripinfo id="W2E_7" depart="18.00" departLane="WE0_0" departPos="5.00" departSpeed="10.00" departDelay="0.00" arrival="53.00" arrivalLane="WE1_0" arrivalPos="292.80" arrivalSpeed="18.28" duration="35.00" routeLength="595.00" waitingTime="0.00" waitingCount="0" stopTime="0.00" timeLoss="4.90" rerouteNo="0" devices="tripinfo_W2E_7 battery_W2E_7" vType="ego_car" speedFactor="1.05" vaporized=""/>
    <tripinfo id="W2E_8" depart="21.00" departLane="WE0_0" departPos="5.00" departSpeed="10.00" departDelay="0.00" arrival="56.00" arrivalLane="WE1_0" arrivalPos="292.80" arrivalSpeed="17.72" duration="35.00" routeLength="595.00" waitingTime="0.00" waitingCount="0" stopTime="0.00" timeLoss="1.06" rerouteNo="0" devices="tripinfo_W2E_8 battery_W2E_8" vType="ego_car" speedFactor="0.89" vaporized=""/>
    <tripinfo id="W2E_9" depart="24.00" departLane="WE0_0" departPos="5.00" departSpeed="10.00" departDelay="0.00" arrival="58.00" arrivalLane="WE1_0" arrivalPos="292.80" arrivalSpeed="18.76" duration="34.00" routeLength="595.00" waitingTime="0.00" waitingCount="0" stopTime="0.00" timeLoss="1.64" rerouteNo="0" devices="tripinfo_W2E_9 battery_W2E_9" vType="ego_car" speedFactor="0.94" vaporized=""/>
    <tripinfo id="W2E_10" depart="27.00" departLane="WE0_0" departPos="5.00" departSpeed="10.00" departDelay="0.00" arrival="63.00" arrivalLane="WE1_0" arrivalPos="292.80" arrivalSpeed="17.14" duration="36.00" routeLength="595.00" waitingTime="0.00" waitingCount="0" stopTime="0.00" timeLoss="0.57" rerouteNo="0" devices="tripinfo_W2E_10 battery_W2E_10" vType="ego_car" speedFactor="0.86" vaporized=""/>
    <tripinfo id="W2E_11" depart="30.00" departLane="WE0_0" departPos="5.00" departSpeed="10.00" departDelay="0.00" arrival="64.00" arrivalLane="WE1_0" arrivalPos="292.80" arrivalSpeed="18.67" duration="34.00" routeLength="595.00" waitingTime="0.00" waitingCount="0" stopTime="0.00" timeLoss="3.87" rerouteNo="0" devices="tripinfo_W2E_11 battery_W2E_11" vType="ego_car" speedFactor="1.09" vaporized=""/>
    <tripinfo id="W2E_12" depart="33.00" departLane="WE0_0" departPos="5.00" departSpeed="10.00" departDelay="0.00" arrival="128.00" arrivalLane="WE1_0" arrivalPos="292.80" arrivalSpeed="20.00" duration="95.00" routeLength="595.00" waitingTime="0.00" waitingCount="0" stopTime="0.00" timeLoss="65.21" rerouteNo="0" devices="tripinfo_W2E_12 battery_W2E_12" vType="ego_car" speedFactor="1.03" vaporized=""/>
    <tripinfo id="W2E_13" depart="36.00" departLane="WE0_0" departPos="5.00" departSpeed="10.00" departDelay="0.00" arrival="130.00" arrivalLane="WE1_0" arrivalPos="292.80" arrivalSpeed="20.00" duration="94.00" routeLength="595.00" waitingTime="0.00" waitingCount="0" stopTime="0.00" timeLoss="63.51" rerouteNo="0" devices="tripinfo_W2E_13 battery_W2E_13" vType="ego_car" speedFactor="1.05" vaporized=""/>
    <tripinfo id="W2E_14" depart="42.00" departLane="WE0_0" departPos="5.00" departSpeed="10.00" departDelay="3.00" arrival="133.00" arrivalLane="WE1_0" arrivalPos="292.80" arrivalSpeed="20.00" duration="91.00" routeLength="595.00" waitingTime="0.00" waitingCount="0" stopTime="0.00" timeLoss="60.35" rerouteNo="0" devices="tripinfo_W2E_14 battery_W2E_14" vType="ego_car" speedFactor="1.12" vaporized=""/>
    <tripinfo id="W2E_15" depart="48.00" departLane="WE0_0" departPos="5.00" departSpeed="10.00" departDelay="6.00" arrival="134.00" arrivalLane="WE1_0" arrivalPos="292.80" arrivalSpeed="19.82" duration="86.00" routeLength="595.00" waitingTime="0.00" waitingCount="0" stopTime="0.00" timeLoss="55.46" rerouteNo="0" devices="tripinfo_W2E_15 battery_W2E_15" vType="ego_car" speedFactor="0.99" vaporized=""/>
    <tripinfo id="W2E_16" depart="53.00" departLane="WE0_0" departPos="5.00" departSpeed="10.00" departDelay="8.00" arrival="136.00" arrivalLane="WE1_0" arrivalPos="292.80" arrivalSpeed="18.54" duration="83.00" routeLength="595.00" waitingTime="0.00" waitingCount="0" stopTime="0.00" timeLoss="50.39" rerouteNo="0" devices="tripinfo_W2E_16 battery_W2E_16" vType="ego_car" speedFactor="0.93" vaporized=""/>
    <tripinfo id="W2E_17" depart="58.00" departLane="WE0_0" departPos="5.00" departSpeed="10.00" departDelay="10.00" arrival="138.00" arrivalLane="WE1_0" arrivalPos="292.80" arrivalSpeed="17.57" duration="80.00" routeLength="595.00" waitingTime="0.00" waitingCount="0" stopTime="0.00" timeLoss="45.61" rerouteNo="0" devices="tripinfo_W2E_17 battery_W2E_17" vType="ego_car" speedFactor="0.88" vaporized=""/>
    <tripinfo id="W2E_18" depart="63.00" departLane="WE0_0" departPos="5.00" departSpeed="10.00" departDelay="12.00" arrival="139.00" arrivalLane="WE1_0" arrivalPos="292.80" arrivalSpeed="18.83" duration="76.00" routeLength="595.00" waitingTime="0.00" waitingCount="0" stopTime="0.00" timeLoss="44.15" rerouteNo="0" devices="tripinfo_W2E_18 battery_W2E_18" vType="ego_car" speedFactor="0.94" vaporized=""/>
    <tripinfo id="W2E_19" depart="67.00" departLane="WE0_0" departPos="5.00" departSpeed="10.00" departDelay="13.00" arrival="141.00" arrivalLane="WE1_0" arrivalPos="292.80" arrivalSpeed="18.72" duration="74.00" routeLength="595.00" waitingTime="0.00" waitingCount="0" stopTime="0.00" timeLoss="41.30" rerouteNo="0" devices="tripinfo_W2E_19 battery_W2E_19" vType="ego_car" speedFactor="0.94" vaporized=""/>
    <tripinfo id="W2E_20" depart="71.00" departLane="WE0_0" departPos="5.00" departSpeed="10.00" departDelay="14.00" arrival="142.00" arrivalLane="WE1_0" arrivalPos="292.80" arrivalSpeed="20.00" duration="71.00" routeLength="595.00" waitingTime="0.00" waitingCount="0" stopTime="0.00" timeLoss="40.62" rerouteNo="0" devices="tripinfo_W2E_20 battery_W2E_20" vType="ego_car" speedFactor="1.16" vaporized=""/>
    <tripinfo id="W2E_21" depart="74.00" departLane="WE0_0" departPos="5.00" departSpeed="10.00" departDelay="14.00" arrival="143.00" arrivalLane="WE1_0" arrivalPos="292.80" arrivalSpeed="20.00" duration="69.00" routeLength="595.00" waitingTime="0.00" waitingCount="0" stopTime="0.00" timeLoss="38.91" rerouteNo="0" devices="tripinfo_W2E_21 battery_W2E_21" vType="ego_car" speedFactor="1.02" vaporized=""/>
    <tripinfo id="W2E_22" depart="77.00" departLane="WE0_0" departPos="5.00" departSpeed="10.00" departDelay="14.00" arrival="144.00" arrivalLane="WE1_0" arrivalPos="292.80" arrivalSpeed="20.00" duration="67.00" routeLength="595.00" waitingTime="0.00" waitingCount="0" stopTime="0.00" timeLoss="37.21" rerouteNo="0" devices="tripinfo_W2E_22 battery_W2E_22" vType="ego_car" speedFactor="1.01" vaporized=""/>
    <tripinfo id="W2E_23" depart="80.00" departLane="WE0_0" departPos="5.00" departSpeed="10.00" departDelay="14.00" arrival="146.00" arrivalLane="WE1_0" arrivalPos="292.80" arrivalSpeed="19.50" duration="66.00" routeLength="595.00" waitingTime="0.00" waitingCount="0" stopTime="0.00" timeLoss="34.77" rerouteNo="0" devices="tripinfo_W2E_23 battery_W2E_23" vType="ego_car" speedFactor="0.97" vaporized=""/>
    <tripinfo id="W2E_24" depart="82.00" departLane="WE0_0" departPos="5.00" departSpeed="10.00" departDelay="13.00" arrival="147.00" arrivalLane="WE1_0" arrivalPos="292.80" arrivalSpeed="17.79" duration="65.00" routeLength="595.00" waitingTime="0.00" waitingCount="0" stopTime="0.00" timeLoss="31.35" rerouteNo="0" devices="tripinfo_W2E_24 battery_W2E_24" vType="ego_car" speedFactor="0.89" vaporized=""/>
    <tripinfo id="W2E_25" depart="84.00" departLane="WE0_0" departPos="5.00" departSpeed="10.00" departDelay="12.00" arrival="150.00" arrivalLane="WE1_0" arrivalPos="292.80" arrivalSpeed="16.51" duration="66.00" routeLength="595.00" waitingTime="0.00" waitingCount="0" stopTime="0.00" timeLoss="29.16" rerouteNo="0" devices="tripinfo_W2E_25 battery_W2E_25" vType="ego_car" speedFactor="0.83" vaporized=""/>
    <tripinfo id="W2E_26" depart="86.00" departLane="WE0_0" departPos="5.00" departSpeed="10.00" departDelay="11.00" arrival="151.00" arrivalLane="WE1_0" arrivalPos="292.80" arrivalSpeed="17.45" duration="65.00" routeLength="595.00" waitingTime="0.00" waitingCount="0" stopTime="0.00" timeLoss="30.43" rerouteNo="0" devices="tripinfo_W2E_26 battery_W2E_26" vType="ego_car" speedFactor="0.87" vaporized=""/>
    <tripinfo id="W2E_27" depart="87.00" departLane="WE0_0" departPos="5.00" departSpeed="10.00" departDelay="9.00" arrival="152.00" arrivalLane="WE1_0" arrivalPos="292.80" arrivalSpeed="18.01" duration="65.00" routeLength="595.00" waitingTime="0.00" waitingCount="0" stopTime="0.00" timeLoss="32.40" rerouteNo="0" devices="tripinfo_W2E_27 battery_W2E_27" vType="ego_car" speedFactor="0.92" vaporized=""/>
    <tripinfo id="W2E_28" depart="89.00" departLane="WE0_0" departPos="5.00" departSpeed="10.00" departDelay="8.00" arrival="154.00" arrivalLane="WE1_0" arrivalPos="292.80" arrivalSpeed="18.98" duration="65.00" routeLength="595.00" waitingTime="0.00" waitingCount="0" stopTime="0.00" timeLoss="32.80" rerouteNo="0" devices="tripinfo_W2E_28 battery_W2E_28" vType="ego_car" speedFactor="0.95" vaporized=""/>
    <tripinfo id="W2E_29" depart="90.00" departLane="WE0_0" departPos="5.00" departSpeed="10.00" departDelay="6.00" arrival="155.00" arrivalLane="WE1_0" arrivalPos="292.80" arrivalSpeed="19.51" duration="65.00" routeLength="595.00" waitingTime="0.00" waitingCount="0" stopTime="0.00" timeLoss="34.71" rerouteNo="0" devices="tripinfo_W2E_29 battery_W2E_29" vType="ego_car" speedFactor="1.13" vaporized=""/>
    <tripinfo id="W2E_30" depart="92.00" departLane="WE0_0" departPos="5.00" departSpeed="10.00" departDelay="5.00" arrival="156.00" arrivalLane="WE1_0" arrivalPos="292.80" arrivalSpeed="18.63" duration="64.00" routeLength="595.00" waitingTime="0.00" waitingCount="0" stopTime="0.00" timeLoss="31.84" rerouteNo="0" devices="tripinfo_W2E_30 battery_W2E_30" vType="ego_car" speedFactor="0.93" vaporized=""/>
    <tripinfo id="W2E_31" depart="94.00" departLane="WE0_0" departPos="5.00" departSpeed="10.00" departDelay="4.00" arrival="158.00" arrivalLane="WE1_0" arrivalPos="292.80" arrivalSpeed="20.00" duration="64.00" routeLength="595.00" waitingTime="0.00" waitingCount="0" stopTime="0.00" timeLoss="33.30" rerouteNo="0" devices="tripinfo_W2E_31 battery_W2E_31" vType="ego_car" speedFactor="1.18" vaporized=""/>
    <tripinfo id="W2E_32" depart="95.00" departLane="WE0_0" departPos="5.00" departSpeed="10.00" departDelay="2.00" arrival="159.00" arrivalLane="WE1_0" arrivalPos="292.80" arrivalSpeed="20.00" duration="64.00" routeLength="595.00" waitingTime="0.00" waitingCount="0" stopTime="0.00" timeLoss="33.60" rerouteNo="0" devices="tripinfo_W2E_32 battery_W2E_32" vType="ego_car" speedFactor="1.15" vaporized=""/>
    <tripinfo id="W2E_33" depart="97.00" departLane="WE0_0" departPos="5.00" departSpeed="10.00" departDelay="1.00" arrival="160.00" arrivalLane="WE1_0" arrivalPos="292.80" arrivalSpeed="20.00" duration="63.00" routeLength="595.00" waitingTime="0.00" waitingCount="0" stopTime="0.00" timeLoss="32.89" rerouteNo="0" devices="tripinfo_W2E_33 battery_W2E_33" vType="ego_car" speedFactor="1.01" vaporized=""/>
    <tripinfo id="W2E_34" depart="99.00" departLane="WE0_0" departPos="5.00" departSpeed="10.00" departDelay="0.00" arrival="161.00" arrivalLane="WE1_0" arrivalPos="292.80" arrivalSpeed="20.00" duration="62.00" routeLength="595.00" waitingTime="0.00" waitingCount="0" stopTime="0.00" timeLoss="32.19" rerouteNo="0" devices="tripinfo_W2E_34 battery_W2E_34" vType="ego_car" speedFactor="1.17" vaporized=""/>
    <tripinfo id="W2E_35" depart="102.00" departLane="WE0_0" departPos="5.00" departSpeed="10.00" departDelay="0.00" arrival="163.00" arrivalLane="WE1_0" arrivalPos="292.80" arrivalSpeed="19.90" duration="61.00" routeLength="595.00" waitingTime="0.00" waitingCount="0" stopTime="0.00" timeLoss="30.33" rerouteNo="0" devices="tripinfo_W2E_35 battery_W2E_35" vType="ego_car" speedFactor="0.99" vaporized=""/>
    <tripinfo id="W2E_36" depart="105.00" departLane="WE0_0" departPos="5.00" departSpeed="10.00" departDelay="0.00" arrival="164.00" arrivalLane="WE1_0" arrivalPos="292.80" arrivalSpeed="20.00" duration="59.00" routeLength="595.00" waitingTime="0.00" waitingCount="0" stopTime="0.00" timeLoss="28.78" rerouteNo="0" devices="tripinfo_W2E_36 battery_W2E_36" vType="ego_car" speedFactor="1.02" vaporized=""/>
    <tripinfo id="W2E_37" depart="108.00" departLane="WE0_0" departPos="5.00" departSpeed="10.00" departDelay="0.00" arrival="165.00" arrivalLane="WE1_0" arrivalPos="292.80" arrivalSpeed="19.46" duration="57.00" routeLength="595.00" waitingTime="0.00" waitingCount="0" stopTime="0.00" timeLoss="26.31" rerouteNo="0" devices="tripinfo_W2E_37 battery_W2E_37" vType="ego_car" speedFactor="0.97" vaporized=""/>
    <tripinfo id="W2E_38" depart="111.00" departLane="WE0_0" departPos="5.00" departSpeed="10.00" departDelay="0.00" arrival="167.00" arrivalLane="WE1_0" arrivalPos="292.80" arrivalSpeed="20.00" duration="56.00" routeLength="595.00" waitingTime="0.00" waitingCount="0" stopTime="0.00" timeLoss="25.40" rerouteNo="0" devices="tripinfo_W2E_38 battery_W2E_38" vType="ego_car" speedFactor="1.18" vaporized=""/>
    <tripinfo id="W2E_39" depart="114.00" departLane="WE0_0" departPos="5.00" departSpeed="10.00" departDelay="0.00" arrival="168.00" arrivalLane="WE1_0" arrivalPos="292.80" arrivalSpeed="20.00" duration="54.00" routeLength="595.00" waitingTime="0.00" waitingCount="0" stopTime="0.00" timeLoss="23.69" rerouteNo="0" devices="tripinfo_W2E_39 battery_W2E_39" vType="ego_car" speedFactor="1.10" vaporized=""/>
    <tripinfo id="W2E_40" depart="117.00" departLane="WE0_0" departPos="5.00" departSpeed="10.00" departDelay="0.00" arrival="170.00" arrivalLane="WE1_0" arrivalPos="292.80" arrivalSpeed="18.01" duration="53.00" routeLength="595.00" waitingTime="0.00" waitingCount="0" stopTime="0.00" timeLoss="19.06" rerouteNo="0" devices="tripinfo_W2E_40 battery_W2E_40" vType="ego_car" speedFactor="0.90" vaporized=""/>
    <tripinfo id="W2E_41" depart="120.00" departLane="WE0_0" departPos="5.00" departSpeed="10.00" departDelay="0.00" arrival="171.00" arrivalLane="WE1_0" arrivalPos="292.80" arrivalSpeed="19.51" duration="51.00" routeLength="595.00" waitingTime="0.00" waitingCount="0" stopTime="0.00" timeLoss="20.65" rerouteNo="0" devices="tripinfo_W2E_41 battery_W2E_41" vType="ego_car" speedFactor="1.03" vaporized=""/>
    <tripinfo id="W2E_42" depart="123.00" departLane="WE0_0" departPos="5.00" departSpeed="10.00" departDelay="0.00" arrival="172.00" arrivalLane="WE1_0" arrivalPos="292.80" arrivalSpeed="19.14" duration="49.00" routeLength="595.00" waitingTime="0.00" waitingCount="0" stopTime="0.00" timeLoss="17.62" rerouteNo="0" devices="tripinfo_W2E_42 battery_W2E_42" vType="ego_car" speedFactor="0.96" vaporized=""/>
    <tripinfo id="W2E_43" depart="126.00" departLane="WE0_0" departPos="5.00" departSpeed="10.00" departDelay="0.00" arrival="173.00" arrivalLane="WE1_0" arrivalPos="292.80" arrivalSpeed="19.51" duration="47.00" routeLength="595.00" waitingTime="0.00" waitingCount="0" stopTime="0.00" timeLoss="17.24" rerouteNo="0" devices="tripinfo_W2E_43 battery_W2E_43" vType="ego_car" speedFactor="1.09" vaporized=""/>
    <tripinfo id="W2E_44" depart="129.00" departLane="WE0_0" departPos="5.00" departSpeed="10.00" departDelay="0.00" arrival="175.00" arrivalLane="WE1_0" arrivalPos="292.80" arrivalSpeed="20.00" duration="46.00" routeLength="595.00" waitingTime="0.00" waitingCount="0" stopTime="0.00" timeLoss="15.54" rerouteNo="0" devices="tripinfo_W2E_44 battery_W2E_44" vType="ego_car" speedFactor="1.04" vaporized=""/>
    <tripinfo id="W2E_45" depart="132.00" departLane="WE0_0" departPos="5.00" departSpeed="10.00" departDelay="0.00" arrival="176.00" arrivalLane="WE1_0" arrivalPos="292.80" arrivalSpeed="20.00" duration="44.00" routeLength="595.00" waitingTime="0.00" waitingCount="0" stopTime="0.00" timeLoss="13.83" rerouteNo="0" devices="tripinfo_W2E_45 battery_W2E_45" vType="ego_car" speedFactor="1.04" vaporized=""/>
    <tripinfo id="W2E_46" depart="135.00" departLane="WE0_0" departPos="5.00" departSpeed="10.00" departDelay="0.00" arrival="177.00" arrivalLane="WE1_0" arrivalPos="292.80" arrivalSpeed="20.00" duration="42.00" routeLength="595.00" waitingTime="0.00" waitingCount="0" stopTime="0.00" timeLoss="12.18" rerouteNo="0" devices="tripinfo_W2E_46 battery_W2E_46" vType="ego_car" speedFactor="1.09" vaporized=""/>
    <tripinfo id="W2E_47" depart="138.00" departLane="WE0_0" departPos="5.00" departSpeed="10.00" departDelay="0.00" arrival="239.00" arrivalLane="WE1_0" arrivalPos="292.80" arrivalSpeed="19.95" duration="101.00" routeLength="595.00" waitingTime="0.00" waitingCount="0" stopTime="0.00" timeLoss="70.24" rerouteNo="0" devices="tripinfo_W2E_47 battery_W2E_47" vType="ego_car" speedFactor="1.00" vaporized=""/>
    <tripinfo id="W2E_48" depart="141.00" departLane="WE0_0" departPos="5.00" departSpeed="10.00" departDelay="0.00" arrival="241.00" arrivalLane="WE1_0" arrivalPos="292.80" arrivalSpeed="18.01" duration="100.00" routeLength="595.00" waitingTime="0.00" waitingCount="0" stopTime="0.00" timeLoss="66.43" rerouteNo="0" devices="tripinfo_W2E_48 battery_W2E_48" vType="ego_car" speedFactor="0.90" vaporized=""/>
    <tripinfo id="W2E_49" depart="144.00" departLane="WE0_0" departPos="5.00" departSpeed="10.00" departDelay="0.00" arrival="243.00" arrivalLane="WE1_0" arrivalPos="292.80" arrivalSpeed="17.54" duration="99.00" routeLength="595.00" waitingTime="0.00" waitingCount="0" stopTime="0.00" timeLoss="64.21" rerouteNo="0" devices="tripinfo_W2E_49 battery_W2E_49" vType="ego_car" speedFactor="0.88" vaporized=""/>
    <tripinfo id="W2E_50" depart="150.00" departLane="WE0_0" departPos="5.00" departSpeed="10.00" departDelay="3.00" arrival="244.00" arrivalLane="WE1_0" arrivalPos="292.80" arrivalSpeed="17.01" duration="94.00" routeLength="595.00" waitingTime="0.00" waitingCount="0" stopTime="0.00" timeLoss="58.91" rerouteNo="0" devices="tripinfo_W2E_50 battery_W2E_50" vType="ego_car" speedFactor="0.85" vaporized=""/>
    <tripinfo id="W2E_51" depart="156.00" departLane="WE0_0" departPos="5.00" departSpeed="10.00" departDelay="6.00" arrival="246.00" arrivalLane="WE1_0" arrivalPos="292.80" arrivalSpeed="17.10" duration="90.00" routeLength="595.00" waitingTime="0.00" waitingCount="0" stopTime="0.00" timeLoss="54.43" rerouteNo="0" devices="tripinfo_W2E_51 battery_W2E_51" vType="ego_car" speedFactor="0.85" vaporized=""/>
    <tripinfo id="W2E_52" depart="162.00" departLane="WE0_0" departPos="5.00" departSpeed="10.00" departDelay="9.00" arrival="247.00" arrivalLane="WE1_0" arrivalPos="292.80" arrivalSpeed="18.60" duration="85.00" routeLength="595.00" waitingTime="0.00" waitingCount="0" stopTime="0.00" timeLoss="54.81" rerouteNo="0" devices="tripinfo_W2E_52 battery_W2E_52" vType="ego_car" speedFactor="1.17" vaporized=""/>
    <tripinfo id="W2E_53" depart="167.00" departLane="WE0_0" departPos="5.00" departSpeed="10.00" departDelay="11.00" arrival="248.00" arrivalLane="WE1_0" arrivalPos="292.80" arrivalSpeed="18.60" duration="81.00" routeLength="595.00" waitingTime="0.00" waitingCount="0" stopTime="0.00" timeLoss="51.11" rerouteNo="0" devices="tripinfo_W2E_53 battery_W2E_53" vType="ego_car" speedFactor="1.02" vaporized=""/>
    <tripinfo id="W2E_54" depart="172.00" departLane="WE0_0" departPos="5.00" departSpeed="10.00" departDelay="13.00" arrival="250.00" arrivalLane="WE1_0" arrivalPos="292.80" arrivalSpeed="20.00" duration="78.00" routeLength="595.00" waitingTime="0.00" waitingCount="0" stopTime="0.00" timeLoss="47.40" rerouteNo="0" devices="tripinfo_W2E_54 battery_W2E_54" vType="ego_car" speedFactor="1.10" vaporized=""/>
    <tripinfo id="W2E_55" depart="176.00" departLane="WE0_0" departPos="5.00" departSpeed="10.00" departDelay="14.00" arrival="251.00" arrivalLane="WE1_0" arrivalPos="292.80" arrivalSpeed="20.00" duration="75.00" routeLength="595.00" waitingTime="0.00" waitingCount="0" stopTime="0.00" timeLoss="44.70" rerouteNo="0" devices="tripinfo_W2E_55 battery_W2E_55" vType="ego_car" speedFactor="1.00" vaporized=""/>
    <tripinfo id="W2E_56" depart="180.00" departLane="WE0_0" departPos="5.00" departSpeed="10.00" departDelay="15.00" arrival="252.00" arrivalLane="WE1_0" arrivalPos="292.80" arrivalSpeed="19.92" duration="72.00" routeLength="595.00" waitingTime="0.00" waitingCount="0" stopTime="0.00" timeLoss="41.88" rerouteNo="0" devices="tripinfo_W2E_56 battery_W2E_56" vType="ego_car" speedFactor="1.00" vaporized=""/>
    <tripinfo id="W2E_57" depart="184.00" departLane="WE0_0" departPos="5.00" departSpeed="10.00" departDelay="16.00" arrival="254.00" arrivalLane="WE1_0" arrivalPos="292.80" arrivalSpeed="17.98" duration="70.00" routeLength="595.00" waitingTime="0.00" waitingCount="0" stopTime="0.00" timeLoss="36.09" rerouteNo="0" devices="tripinfo_W2E_57 battery_W2E_57" vType="ego_car" speedFactor="0.90" vaporized=""/>
    <tripinfo id="W2E_58" depart="187.00" departLane="WE0_0" departPos="5.00" departSpeed="10.00" departDelay="16.00" arrival="255.00" arrivalLane="WE1_0" arrivalPos="292.80" arrivalSpeed="19.48" duration="68.00" routeLength="595.00" waitingTime="0.00" waitingCount="0" stopTime="0.00" timeLoss="37.74" rerouteNo="0" devices="tripinfo_W2E_58 battery_W2E_58" vType="ego_car" speedFactor="1.14" vaporized=""/>
    <tripinfo id="W2E_59" depart="190.00" departLane="WE0_0" departPos="5.00" departSpeed="10.00" departDelay="16.00" arrival="256.00" arrivalLane="WE1_0" arrivalPos="292.80" arrivalSpeed="19.48" duration="66.00" routeLength="595.00" waitingTime="0.00" waitingCount="0" stopTime="0.00" timeLoss="36.04" rerouteNo="0" devices="tripinfo_W2E_59 battery_W2E_59" vType="ego_car" speedFactor="1.02" vaporized=""/>
    <tripinfo id="W2E_60" depart="192.00" departLane="WE0_0" departPos="5.00" departSpeed="10.00" departDelay="15.00" arrival="258.00" arrivalLane="WE1_0" arrivalPos="292.80" arrivalSpeed="19.39" duration="66.00" routeLength="595.00" waitingTime="0.00" waitingCount="0" stopTime="0.00" timeLoss="34.40" rerouteNo="0" devices="tripinfo_W2E_60 battery_W2E_60" vType="ego_car" speedFactor="0.97" vaporized=""/>
    <tripinfo id="W2E_61" depart="194.00" departLane="WE0_0" departPos="5.00" departSpeed="10.00" departDelay="14.00" arrival="259.00" arrivalLane="WE1_0" arrivalPos="292.80" arrivalSpeed="20.00" duration="65.00" routeLength="595.00" waitingTime="0.00" waitingCount="0" stopTime="0.00" timeLoss="34.63" rerouteNo="0" devices="tripinfo_W2E_61 battery_W2E_61" vType="ego_car" speedFactor="1.08" vaporized=""/>
    <tripinfo id="W2E_62" depart="196.00" departLane="WE0_0" departPos="5.00" departSpeed="10.00" departDelay="13.00" arrival="260.00" arrivalLane="WE1_0" arrivalPos="292.80" arrivalSpeed="20.00" duration="64.00" routeLength="595.00" waitingTime="0.00" waitingCount="0" stopTime="0.00" timeLoss="33.93" rerouteNo="0" devices="tripinfo_W2E_62 battery_W2E_62" vType="ego_car" speedFactor="1.12" vaporized=""/>
    <tripinfo id="W2E_63" depart="197.00" departLane="WE0_0" departPos="5.00" departSpeed="10.00" departDelay="11.00" arrival="261.00" arrivalLane="WE1_0" arrivalPos="292.80" arrivalSpeed="20.00" duration="64.00" routeLength="595.00" waitingTime="0.00" waitingCount="0" stopTime="0.00" timeLoss="34.22" rerouteNo="0" devices="tripinfo_W2E_63 battery_W2E_63" vType="ego_car" speedFactor="1.02" vaporized=""/>
    <tripinfo id="W2E_64" depart="199.00" departLane="WE0_0" departPos="5.00" departSpeed="10.00" departDelay="10.00" arrival="263.00" arrivalLane="WE1_0" arrivalPos="292.80" arrivalSpeed="19.74" duration="64.00" routeLength="595.00" waitingTime="0.00" waitingCount="0" stopTime="0.00" timeLoss="33.14" rerouteNo="0" devices="tripinfo_W2E_64 battery_W2E_64" vType="ego_car" speedFactor="0.99" vaporized=""/>
    <tripinfo id="W2E_65" depart="200.00" departLane="WE0_0" departPos="5.00" departSpeed="10.00" departDelay="8.00" arrival="264.00" arrivalLane="WE1_0" arrivalPos="292.80" arrivalSpeed="18.75" duration="64.00" routeLength="595.00" waitingTime="0.00" waitingCount="0" stopTime="0.00" timeLoss="31.97" rerouteNo="0" devices="tripinfo_W2E_65 battery_W2E_65" vType="ego_car" speedFactor="0.94" vaporized=""/>
    <tripinfo id="W2E_66" depart="202.00" departLane="WE0_0" departPos="5.00" departSpeed="10.00" departDelay="7.00" arrival="266.00" arrivalLane="WE1_0" arrivalPos="292.80" arrivalSpeed="17.65" duration="64.00" routeLength="595.00" waitingTime="0.00" waitingCount="0" stopTime="0.00" timeLoss="29.52" rerouteNo="0" devices="tripinfo_W2E_66 battery_W2E_66" vType="ego_car" speedFactor="0.88" vaporized=""/>
    <tripinfo id="W2E_67" depart="204.00" departLane="WE0_0" departPos="5.00" departSpeed="10.00" departDelay="6.00" arrival="267.00" arrivalLane="WE1_0" arrivalPos="292.80" arrivalSpeed="18.14" duration="63.00" routeLength="595.00" waitingTime="0.00" waitingCount="0" stopTime="0.00" timeLoss="29.75" rerouteNo="0" devices="tripinfo_W2E_67 battery_W2E_67" vType="ego_car" speedFactor="0.91" vaporized=""/>
    <tripinfo id="W2E_68" depart="205.00" departLane="WE0_0" departPos="5.00" departSpeed="10.00" departDelay="4.00" arrival="268.00" arrivalLane="WE1_0" arrivalPos="292.80" arrivalSpeed="18.29" duration="63.00" routeLength="595.00" waitingTime="0.00" waitingCount="0" stopTime="0.00" timeLoss="30.35" rerouteNo="0" devices="tripinfo_W2E_68 battery_W2E_68" vType="ego_car" speedFactor="0.91" vaporized=""/>
    <tripinfo id="W2E_69" depart="207.00" departLane="WE0_0" departPos="5.00" departSpeed="10.00" departDelay="3.00" arrival="270.00" arrivalLane="WE1_0" arrivalPos="292.80" arrivalSpeed="20.00" duration="63.00" routeLength="595.00" waitingTime="0.00" waitingCount="0" stopTime="0.00" timeLoss="32.39" rerouteNo="0" devices="tripinfo_W2E_69 battery_W2E_69" vType="ego_car" speedFactor="1.04" vaporized=""/>
    <tripinfo id="W2E_70" depart="208.00" departLane="WE0_0" departPos="5.00" departSpeed="10.00" departDelay="1.00" arrival="271.00" arrivalLane="WE1_0" arrivalPos="292.80" arrivalSpeed="20.00" duration="63.00" routeLength="595.00" waitingTime="0.00" waitingCount="0" stopTime="0.00" timeLoss="32.69" rerouteNo="0" devices="tripinfo_W2E_70 battery_W2E_70" vType="ego_car" speedFactor="1.02" vaporized=""/>
    <tripinfo id="W2E_71" depart="210.00" departLane="WE0_0" departPos="5.00" departSpeed="10.00" departDelay="0.00" arrival="272.00" arrivalLane="WE1_0" arrivalPos="292.80" arrivalSpeed="20.00" duration="62.00" routeLength="595.00" waitingTime="0.00" waitingCount="0" stopTime="0.00" timeLoss="31.98" rerouteNo="0" devices="tripinfo_W2E_71 battery_W2E_71" vType="ego_car" speedFactor="1.02" vaporized=""/>