<?xml version="1.0" encoding="UTF-8"?>

<!-- generated on 2022-09-01 16:33:17 by Eclipse SUMO sumo Version 1.13.0
<configuration xmlns:xsi="http://www.w3.org/2001/XMLSchema-instance" xsi:noNamespaceSchemaLocation="http://sumo.dlr.de/xsd/sumoConfiguration.xsd">

    <input>
        <net-file value="/home/pc10/sumo_workplace/DDPG/uniform_rou_net/intersection.net.xml"/>
        <route-files value="/home/pc10/sumo_workplace/DDPG/uniform_rou_net/intersection1.rou.xml"/>
    </input>

    <output>
        <tripinfo-output value="/home/pc10/sumo_workplace/DDPG/uniform_rou_net/tripinfo.xml"/>
    </output>

    <time>
        <begin value="0"/>
        <end value="3600"/>
        <step-length value="1"/>
    </time>

    <processing>
        <waiting-time-memory value="3600"/>
    </processing>

    <report>
        <no-step-log value="true"/>
    </report>

    <traci_server>
        <remote-port value="53283"/>
    </traci_server>

    <gui_only>
        <tracker-interval value="1"/>
    </gui_only>

</configuration>
-->

<tripinfos xmlns:xsi="http://www.w3.org/2001/XMLSchema-instance" xsi:noNamespaceSchemaLocation="http://sumo.dlr.de/xsd/tripinfo_file.xsd">
    <tripinfo id="S2N_1" depart="0.00" departLane="SN_0" departPos="5.00" departSpeed="10.00" departDelay="0.00" arrival="39.00" arrivalLane="-NS_0" arrivalPos="250.00" arrivalSpeed="13.80" duration="39.00" routeLength="509.40" waitingTime="0.00" waitingCount="0" stopTime="0.00" timeLoss="12.94" rerouteNo="0" devices="tripinfo_S2N_1" vType="ego_car" speedFactor="1.06" vaporized=""/>
    <tripinfo id="N2S_2" depart="2.00" departLane="NS_0" departPos="5.00" departSpeed="10.00" departDelay="0.00" arrival="39.00" arrivalLane="-SN_0" arrivalPos="250.00" arrivalSpeed="13.80" duration="37.00" routeLength="509.40" waitingTime="0.00" waitingCount="0" stopTime="0.00" timeLoss="9.81" rerouteNo="0" devices="tripinfo_N2S_2" vType="ego_car" speedFactor="0.94" vaporized=""/>
    <tripinfo id="S2N_3" depart="7.00" departLane="SN_0" departPos="5.00" departSpeed="10.00" departDelay="0.00" arrival="42.00" arrivalLane="-NS_0" arrivalPos="250.00" arrivalSpeed="13.62" duration="35.00" routeLength="509.40" waitingTime="0.00" waitingCount="0" stopTime="0.00" timeLoss="9.14" rerouteNo="0" devices="tripinfo_S2N_3" vType="ego_car" speedFactor="1.01" vaporized=""/>
    <tripinfo id="N2S_4" depart="9.00" departLane="NS_0" departPos="5.00" departSpeed="10.00" departDelay="0.00" arrival="43.00" arrivalLane="-SN_0" arrivalPos="250.00" arrivalSpeed="13.70" duration="34.00" routeLength="509.40" waitingTime="0.00" waitingCount="0" stopTime="0.00" timeLoss="8.37" rerouteNo="0" devices="tripinfo_N2S_4" vType="ego_car" speedFactor="1.08" vaporized=""/>
    <tripinfo id="S2N_5" depart="14.00" departLane="SN_0" departPos="5.00" departSpeed="10.00" departDelay="0.00" arrival="48.00" arrivalLane="-NS_0" arrivalPos="250.00" arrivalSpeed="13.76" duration="34.00" routeLength="509.40" waitingTime="0.00" waitingCount="0" stopTime="0.00" timeLoss="8.17" rerouteNo="0" devices="tripinfo_S2N_5" vType="ego_car" speedFactor="1.03" vaporized=""/>
    <tripinfo id="N2S_6" depart="16.00" departLane="NS_0" departPos="5.00" departSpeed="10.00" departDelay="0.00" arrival="96.00" arrivalLane="-SN_0" arrivalPos="250.00" arrivalSpeed="13.79" duration="80.00" routeLength="509.40" waitingTime="0.00" waitingCount="0" stopTime="0.00" timeLoss="48.94" rerouteNo="0" devices="tripinfo_N2S_6" vType="ego_car" speedFactor="0.83" vaporized=""/>
    <tripinfo id="S2N_7" depart="21.00" departLane="SN_0" departPos="5.00" departSpeed="10.00" departDelay="0.00" arrival="96.00" arrivalLane="-NS_0" arrivalPos="250.00" arrivalSpeed="13.79" duration="75.00" routeLength="509.40" waitingTime="0.00" waitingCount="0" stopTime="0.00" timeLoss="49.20" rerouteNo="0" devices="tripinfo_S2N_7" vType="ego_car" speedFactor="1.05" vaporized=""/>
    <tripinfo id="N2S_8" depart="23.00" departLane="NS_0" departPos="5.00" departSpeed="10.00" departDelay="0.00" arrival="98.00" arrivalLane="-SN_0" arrivalPos="250.00" arrivalSpeed="13.45" duration="75.00" routeLength="509.40" waitingTime="0.00" waitingCount="0" stopTime="0.00" timeLoss="46.21" rerouteNo="0" devices="tripinfo_N2S_8" vType="ego_car" speedFactor="0.89" vaporized=""/>
    <tripinfo id="S2N_9" depart="28.00" departLane="SN_0" departPos="5.00" departSpeed="10.00" departDelay="0.00" arrival="98.00" arrivalLane="-NS_0" arrivalPos="250.00" arrivalSpeed="13.45" duration="70.00" routeLength="509.40" waitingTime="0.00" waitingCount="0" stopTime="0.00" timeLoss="42.81" rerouteNo="0" devices="tripinfo_S2N_9" vType="ego_car" speedFactor="0.94" vaporized=""/>
    <tripinfo id="N2S_10" depart="30.00" departLane="NS_0" departPos="5.00" departSpeed="10.00" departDelay="0.00" arrival="101.00" arrivalLane="-SN_0" arrivalPos="250.00" arrivalSpeed="13.44" duration="71.00" routeLength="509.40" waitingTime="0.00" waitingCount="0" stopTime="0.00" timeLoss="40.76" rerouteNo="0" devices="tripinfo_N2S_10" vType="ego_car" speedFactor="0.86" vaporized=""/>
    <tripinfo id="S2N_11" depart="35.00" departLane="SN_0" departPos="5.00" departSpeed="10.00" departDelay="0.00" arrival="101.00" arrivalLane="-NS_0" arrivalPos="250.00" arrivalSpeed="13.44" duration="66.00" routeLength="509.40" waitingTime="0.00" waitingCount="0" stopTime="0.00" timeLoss="40.10" rerouteNo="0" devices="tripinfo_S2N_11" vType="ego_car" speedFactor="1.09" vaporized=""/>
    <tripinfo id="N2S_12" depart="37.00" departLane="NS_0" departPos="5.00" departSpeed="10.00" departDelay="0.00" arrival="103.00" arrivalLane="-SN_0" arrivalPos="250.00" arrivalSpeed="13.26" duration="66.00" routeLength="509.40" waitingTime="0.00" waitingCount="0" stopTime="0.00" timeLoss="40.31" rerouteNo="0" devices="tripinfo_N2S_12" vType="ego_car" speedFactor="1.03" vaporized=""/>
    <tripinfo id="S2N_13" depart="42.00" departLane="SN_0" departPos="5.00" departSpeed="10.00" departDelay="0.00" arrival="103.00" arrivalLane="-NS_0" arrivalPos="250.00" arrivalSpeed="13.27" duration="61.00" routeLength="509.40" waitingTime="0.00" waitingCount="0" stopTime="0.00" timeLoss="35.32" rerouteNo="0" devices="tripinfo_S2N_13" vType="ego_car" speedFactor="1.05" vaporized=""/>
    <tripinfo id="N2S_14" depart="44.00" departLane="NS_0" departPos="5.00" departSpeed="10.00" departDelay="0.00" arrival="106.00" arrivalLane="-SN_0" arrivalPos="250.00" arrivalSpeed="13.40" duration="62.00" routeLength="509.40" waitingTime="0.00" waitingCount="0" stopTime="0.00" timeLoss="35.88" rerouteNo="0" devices="tripinfo_N2S_14" vType="ego_car" speedFactor="1.12" vaporized=""/>
    <tripinfo id="S2N_15" depart="49.00" departLane="SN_0" departPos="5.00" departSpeed="10.00" departDelay="0.00" arrival="106.00" arrivalLane="-NS_0" arrivalPos="250.00" arrivalSpeed="13.40" duration="57.00" routeLength="509.40" waitingTime="0.00" waitingCount="0" stopTime="0.00" timeLoss="30.66" rerouteNo="0" devices="tripinfo_S2N_15" vType="ego_car" speedFactor="0.99" vaporized=""/>
    <tripinfo id="N2S_16" depart="51.00" departLane="NS_0" departPos="5.00" departSpeed="10.00" departDelay="0.00" arrival="108.00" arrivalLane="-SN_0" arrivalPos="250.00" arrivalSpeed="13.27" duration="57.00" routeLength="509.40" waitingTime="0.00" waitingCount="0" stopTime="0.00" timeLoss="29.09" rerouteNo="0" devices="tripinfo_N2S_16" vType="ego_car" speedFactor="0.93" vaporized=""/>
    <tripinfo id="S2N_17" depart="56.00" departLane="SN_0" departPos="5.00" departSpeed="10.00" departDelay="0.00" arrival="108.00" arrivalLane="-NS_0" arrivalPos="250.00" arrivalSpeed="13.28" duration="52.00" routeLength="509.40" waitingTime="0.00" waitingCount="0" stopTime="0.00" timeLoss="22.59" rerouteNo="0" devices="tripinfo_S2N_17" vType="ego_car" speedFactor="0.88" vaporized=""/>
    <tripinfo id="N2S_18" depart="58.00" departLane="NS_0" departPos="5.00" departSpeed="10.00" departDelay="0.00" arrival="110.00" arrivalLane="-SN_0" arrivalPos="250.00" arrivalSpeed="13.24" duration="52.00" routeLength="509.40" waitingTime="0.00" waitingCount="0" stopTime="0.00" timeLoss="24.82" rerouteNo="0" devices="tripinfo_N2S_18" vType="ego_car" speedFactor="0.94" vaporized=""/>
    <tripinfo id="S2N_19" depart="63.00" departLane="SN_0" departPos="5.00" departSpeed="10.00" departDelay="0.00" arrival="110.00" arrivalLane="-NS_0" arrivalPos="250.00" arrivalSpeed="13.24" duration="47.00" routeLength="509.40" waitingTime="0.00" waitingCount="0" stopTime="0.00" timeLoss="19.67" rerouteNo="0" devices="tripinfo_S2N_19" vType="ego_car" speedFactor="0.94" vaporized=""/>
    <tripinfo id="N2S_20" depart="65.00" departLane="NS_0" departPos="5.00" departSpeed="10.00" departDelay="0.00" arrival="112.00" arrivalLane="-SN_0" arrivalPos="250.00" arrivalSpeed="13.11" duration="47.00" routeLength="509.40" waitingTime="0.00" waitingCount="0" stopTime="0.00" timeLoss="21.45" rerouteNo="0" devices="tripinfo_N2S_20" vType="ego_car" speedFactor="1.16" vaporized=""/>
    <tripinfo id="S2N_21" depart="70.00" departLane="SN_0" departPos="5.00" departSpeed="10.00" departDelay="0.00" arrival="113.00" arrivalLane="-NS_0" arrivalPos="250.00" arrivalSpeed="13.36" duration="43.00" routeLength="509.40" waitingTime="0.00" waitingCount="0" stopTime="0.00" timeLoss="17.03" rerouteNo="0" devices="tripinfo_S2N_21" vType="ego_car" speedFactor="1.02" vaporized=""/>
    <tripinfo id="N2S_22" depart="72.00" departLane="NS_0" departPos="5.00" departSpeed="10.00" departDelay="0.00" arrival="115.00" arrivalLane="-SN_0" arrivalPos="250.00" arrivalSpeed="13.34" duration="43.00" routeLength="509.40" waitingTime="0.00" waitingCount="0" stopTime="0.00" timeLoss="16.97" rerouteNo="0" devices="tripinfo_N2S_22" vType="ego_car" speedFactor="1.01" vaporized=""/>
    <tripinfo id="S2N_23" depart="77.00" departLane="SN_0" departPos="5.00" departSpeed="10.00" departDelay="0.00" arrival="115.00" arrivalLane="-NS_0" arrivalPos="250.00" arrivalSpeed="13.27" duration="38.00" routeLength="509.40" waitingTime="0.00" waitingCount="0" stopTime="0.00" timeLoss="11.71" rerouteNo="0" devices="tripinfo_S2N_23" vType="ego_car" speedFactor="0.97" vaporized=""/>
    <tripinfo id="N2S_24" depart="79.00" departLane="NS_0" departPos="5.00" departSpeed="10.00" departDelay="0.00" arrival="117.00" arrivalLane="-SN_0" arrivalPos="250.00" arrivalSpeed="13.31" duration="38.00" routeLength="509.40" waitingTime="0.00" waitingCount="0" stopTime="0.00" timeLoss="9.30" rerouteNo="0" devices="tripinfo_N2S_24" vType="ego_car" speedFactor="0.89" vaporized=""/>
    <tripinfo id="S2N_25" depart="84.00" departLane="SN_0" departPos="5.00" departSpeed="10.00" departDelay="0.00" arrival="164.00" arrivalLane="-NS_0" arrivalPos="250.00" arrivalSpeed="13.79" duration="80.00" routeLength="509.40" waitingTime="0.00" waitingCount="0" stopTime="0.00" timeLoss="48.74" rerouteNo="0" devices="tripinfo_S2N_25" vType="ego_car" speedFactor="0.83" vaporized=""/>
    <tripinfo id="N2S_26" depart="86.00" departLane="NS_0" departPos="5.00" departSpeed="10.00" departDelay="0.00" arrival="164.00" arrivalLane="-SN_0" arrivalPos="250.00" arrivalSpeed="13.79" duration="78.00" routeLength="509.40" waitingTime="0.00" waitingCount="0" stopTime="0.00" timeLoss="48.43" rerouteNo="0" devices="tripinfo_N2S_26" vType="ego_car" speedFactor="0.87" vaporized=""/>
    <tripinfo id="S2N_27" depart="91.00" departLane="SN_0" departPos="5.00" departSpeed="10.00" departDelay="0.00" arrival="166.00" arrivalLane="-NS_0" arrivalPos="250.00" arrivalSpeed="13.45" duration="75.00" routeLength="509.40" waitingTime="0.00" waitingCount="0" stopTime="0.00" timeLoss="47.19" rerouteNo="0" devices="tripinfo_S2N_27" vType="ego_car" speedFactor="0.92" vaporized=""/>
    <tripinfo id="N2S_28" depart="93.00" departLane="NS_0" departPos="5.00" departSpeed="10.00" departDelay="0.00" arrival="166.00" arrivalLane="-SN_0" arrivalPos="250.00" arrivalSpeed="13.45" duration="73.00" routeLength="509.40" waitingTime="0.00" waitingCount="0" stopTime="0.00" timeLoss="46.12" rerouteNo="0" devices="tripinfo_N2S_28" vType="ego_car" speedFactor="0.95" vaporized=""/>
    <tripinfo id="S2N_29" depart="98.00" departLane="SN_0" departPos="5.00" departSpeed="10.00" departDelay="0.00" arrival="169.00" arrivalLane="-NS_0" arrivalPos="250.00" arrivalSpeed="13.44" duration="71.00" routeLength="509.40" waitingTime="0.00" waitingCount="0" stopTime="0.00" timeLoss="45.09" rerouteNo="0" devices="tripinfo_S2N_29" vType="ego_car" speedFactor="1.13" vaporized=""/>
    <tripinfo id="N2S_30" depart="100.00" departLane="NS_0" departPos="5.00" departSpeed="10.00" departDelay="0.00" arrival="169.00" arrivalLane="-SN_0" arrivalPos="250.00" arrivalSpeed="13.44" duration="69.00" routeLength="509.40" waitingTime="0.00" waitingCount="0" stopTime="0.00" timeLoss="41.19" rerouteNo="0" devices="tripinfo_N2S_30" vType="ego_car" speedFactor="0.93" vaporized=""/>
    <tripinfo id="S2N_31" depart="105.00" departLane="SN_0" departPos="5.00" departSpeed="10.00" departDelay="0.00" arrival="171.00" arrivalLane="-NS_0" arrivalPos="250.00" arrivalSpeed="13.26" duration="66.00" routeLength="509.40" waitingTime="0.00" waitingCount="0" stopTime="0.00" timeLoss="40.31" rerouteNo="0" devices="tripinfo_S2N_31" vType="ego_car" speedFactor="1.18" vaporized=""/>
    <tripinfo id="N2S_32" depart="107.00" departLane="NS_0" departPos="5.00" departSpeed="10.00" departDelay="0.00" arrival="171.00" arrivalLane="-SN_0" arrivalPos="250.00" arrivalSpeed="13.27" duration="64.00" routeLength="509.40" waitingTime="0.00" waitingCount="0" stopTime="0.00" timeLoss="38.32" rerouteNo="0" devices="tripinfo_N2S_32" vType="ego_car" speedFactor="1.15" vaporized=""/>
    <tripinfo id="S2N_33" depart="112.00" departLane="SN_0" departPos="5.00" departSpeed="10.00" departDelay="0.00" arrival="174.00" arrivalLane="-NS_0" arrivalPos="250.00" arrivalSpeed="13.40" duration="62.00" routeLength="509.40" waitingTime="0.00" waitingCount="0" stopTime="0.00" timeLoss="35.89" rerouteNo="0" devices="tripinfo_S2N_33" vType="ego_car" speedFactor="1.01" vaporized=""/>
    <tripinfo id="N2S_34" depart="114.00" departLane="NS_0" departPos="5.00" departSpeed="10.00" departDelay="0.00" arrival="174.00" arrivalLane="-SN_0" arrivalPos="250.00" arrivalSpeed="13.40" duration="60.00" routeLength="509.40" waitingTime="0.00" waitingCount="0" stopTime="0.00" timeLoss="33.89" rerouteNo="0" devices="tripinfo_N2S_34" vType="ego_car" speedFactor="1.17" vaporized=""/>
    <tripinfo id="S2N_35" depart="119.00" departLane="SN_0" departPos="5.00" departSpeed="10.00" departDelay="0.00" arrival="176.00" arrivalLane="-NS_0" arrivalPos="250.00" arrivalSpeed="13.27" duration="57.00" routeLength="509.40" waitingTime="0.00" waitingCount="0" stopTime="0.00" timeLoss="31.00" rerouteNo="0" devices="tripinfo_S2N_35" vType="ego_car" speedFactor="0.99" vaporized=""/>
    <tripinfo id="N2S_36" depart="121.00" departLane="NS_0" departPos="5.00" departSpeed="10.00" departDelay="0.00" arrival="176.00" arrivalLane="-SN_0" arrivalPos="250.00" arrivalSpeed="13.28" duration="55.00" routeLength="509.40" waitingTime="0.00" waitingCount="0" stopTime="0.00" timeLoss="29.18" rerouteNo="0" devices="tripinfo_N2S_36" vType="ego_car" speedFactor="1.02" vaporized=""/>
    <tripinfo id="S2N_37" depart="126.00" departLane="SN_0" departPos="5.00" departSpeed="10.00" departDelay="0.00" arrival="178.00" arrivalLane="-NS_0" arrivalPos="250.00" arrivalSpeed="13.24" duration="52.00" routeLength="509.40" waitingTime="0.00" waitingCount="0" stopTime="0.00" timeLoss="25.69" rerouteNo="0" devices="tripinfo_S2N_37" vType="ego_car" speedFactor="0.97" vaporized=""/>
    <tripinfo id="N2S_38" depart="128.00" departLane="NS_0" departPos="5.00" departSpeed="10.00" departDelay="0.00" arrival="178.00" arrivalLane="-SN_0" arrivalPos="250.00" arrivalSpeed="13.24" duration="50.00" routeLength="509.40" waitingTime="0.00" waitingCount="0" stopTime="0.00" timeLoss="24.43" rerouteNo="0" devices="tripinfo_N2S_38" vType="ego_car" speedFactor="1.18" vaporized=""/>
    <tripinfo id="S2N_39" depart="133.00" departLane="SN_0" departPos="5.00" departSpeed="10.00" departDelay="0.00" arrival="180.00" arrivalLane="-NS_0" arrivalPos="250.00" arrivalSpeed="13.14" duration="47.00" routeLength="509.40" waitingTime="0.00" waitingCount="0" stopTime="0.00" timeLoss="21.43" rerouteNo="0" devices="tripinfo_S2N_39" vType="ego_car" speedFactor="1.10" vaporized=""/>
    <tripinfo id="N2S_40" depart="135.00" departLane="NS_0" departPos="5.00" departSpeed="10.00" departDelay="0.00" arrival="181.00" arrivalLane="-SN_0" arrivalPos="250.00" arrivalSpeed="13.33" duration="46.00" routeLength="509.40" waitingTime="0.00" waitingCount="0" stopTime="0.00" timeLoss="17.07" rerouteNo="0" devices="tripinfo_N2S_40" vType="ego_car" speedFactor="0.90" vaporized=""/>
    <tripinfo id="S2N_41" depart="140.00" departLane="SN_0" departPos="5.00" departSpeed="10.00" departDelay="0.00" arrival="183.00" arrivalLane="-NS_0" arrivalPos="250.00" arrivalSpeed="13.31" duration="43.00" routeLength="509.40" waitingTime="0.00" waitingCount="0" stopTime="0.00" timeLoss="16.92" rerouteNo="0" devices="tripinfo_S2N_41" vType="ego_car" speedFactor="1.03" vaporized=""/>
    <tripinfo id="N2S_42" depart="142.00" departLane="NS_0" departPos="5.00" departSpeed="10.00" departDelay="0.00" arrival="183.00" arrivalLane="-SN_0" arrivalPos="250.00" arrivalSpeed="13.26" duration="41.00" routeLength="509.40" waitingTime="0.00" waitingCount="0" stopTime="0.00" timeLoss="14.14" rerouteNo="0" devices="tripinfo_N2S_42" vType="ego_car" speedFactor="0.96" vaporized=""/>
    <tripinfo id="S2N_43" depart="147.00" departLane="SN_0" departPos="5.00" departSpeed="10.00" departDelay="0.00" arrival="185.00" arrivalLane="-NS_0" arrivalPos="250.00" arrivalSpeed="13.29" duration="38.00" routeLength="509.40" waitingTime="0.00" waitingCount="0" stopTime="0.00" timeLoss="12.44" rerouteNo="0" devices="tripinfo_S2N_43" vType="ego_car" speedFactor="1.09" vaporized=""/>
    <tripinfo id="N2S_44" depart="149.00" departLane="NS_0" departPos="5.00" departSpeed="10.00" departDelay="0.00" arrival="186.00" arrivalLane="-SN_0" arrivalPos="250.00" arrivalSpeed="13.47" duration="37.00" routeLength="509.40" waitingTime="0.00" waitingCount="0" stopTime="0.00" timeLoss="11.42" rerouteNo="0" devices="tripinfo_N2S_44" vType="ego_car" speedFactor="1.04" vaporized=""/>
    <tripinfo id="S2N_45" depart="154.00" departLane="SN_0" departPos="5.00" departSpeed="10.00" departDelay="0.00" arrival="232.00" arrivalLane="-NS_0" arrivalPos="250.00" arrivalSpeed="13.79" duration="78.00" routeLength="509.40" waitingTime="0.00" waitingCount="0" stopTime="0.00" timeLoss="52.19" rerouteNo="0" devices="tripinfo_S2N_45" vType="ego_car" speedFactor="1.04" vaporized=""/>
    <tripinfo id="N2S_46" depart="156.00" departLane="NS_0" departPos="5.00" departSpeed="10.00" departDelay="0.00" arrival="232.00" arrivalLane="-SN_0" arrivalPos="250.00" arrivalSpeed="13.79" duration="76.00" routeLength="509.40" waitingTime="0.00" waitingCount="0" stopTime="0.00" timeLoss="50.19" rerouteNo="0" devices="tripinfo_N2S_46" vType="ego_car" speedFactor="1.09" vaporized=""/>
    <tripinfo id="S2N_47" depart="161.00" departLane="SN_0" departPos="5.00" departSpeed="10.00" departDelay="0.00" arrival="234.00" arrivalLane="-NS_0" arrivalPos="250.00" arrivalSpeed="13.45" duration="73.00" routeLength="509.40" waitingTime="0.00" waitingCount="0" stopTime="0.00" timeLoss="47.43" rerouteNo="0" devices="tripinfo_S2N_47" vType="ego_car" speedFactor="1.00" vaporized=""/>
    <tripinfo id="N2S_48" depart="163.00" departLane="NS_0" departPos="5.00" departSpeed="10.00" departDelay="0.00" arrival="234.00" arrivalLane="-SN_0" arrivalPos="250.00" arrivalSpeed="13.45" duration="71.00" routeLength="509.40" waitingTime="0.00" waitingCount="0" stopTime="0.00" timeLoss="42.68" rerouteNo="0" devices="tripinfo_N2S_48" vType="ego_car" speedFactor="0.90" vaporized=""/>
    <tripinfo id="S2N_49" depart="168.00" departLane="SN_0" departPos="5.00" departSpeed="10.00" departDelay="0.00" arrival="237.00" arrivalLane="-NS_0" arrivalPos="250.00" arrivalSpeed="13.44" duration="69.00" routeLength="509.40" waitingTime="0.00" waitingCount="0" stopTime="0.00" timeLoss="39.46" rerouteNo="0" devices="tripinfo_S2N_49" vType="ego_car" speedFactor="0.88" vaporized=""/>
    <tripinfo id="N2S_50" depart="170.00" departLane="NS_0" departPos="5.00" departSpeed="10.00" departDelay="0.00" arrival="237.00" arrivalLane="-SN_0" arrivalPos="250.00" arrivalSpeed="13.44" duration="67.00" routeLength="509.40" waitingTime="0.00" waitingCount="0" stopTime="0.00" timeLoss="36.54" rerouteNo="0" devices="tripinfo_N2S_50" vType="ego_car" speedFactor="0.85" vaporized=""/>
    <tripinfo id="S2N_51" depart="175.00" departLane="SN_0" departPos="5.00" departSpeed="10.00" departDelay="0.00" arrival="239.00" arrivalLane="-NS_0" arrivalPos="250.00" arrivalSpeed="13.27" duration="64.00" routeLength="509.40" waitingTime="0.00" waitingCount="0" stopTime="0.00" timeLoss="33.96" rerouteNo="0" devices="tripinfo_S2N_51" vType="ego_car" speedFactor="0.85" vaporized=""/>
    <tripinfo id="N2S_52" depart="177.00" departLane="NS_0" departPos="5.00" departSpeed="10.00" departDelay="0.00" arrival="239.00" arrivalLane="-SN_0" arrivalPos="250.00" arrivalSpeed="13.27" duration="62.00" routeLength="509.40" waitingTime="0.00" waitingCount="0" stopTime="0.00" timeLoss="36.32" rerouteNo="0" devices="tripinfo_N2S_52" vType="ego_car" speedFactor="1.17" vaporized=""/>
    <tripinfo id="S2N_53" depart="182.00" departLane="SN_0" departPos="5.00" departSpeed="10.00" departDelay="0.00" arrival="242.00" arrivalLane="-NS_0" arrivalPos="250.00" arrivalSpeed="13.40" duration="60.00" routeLength="509.40" waitingTime="0.00" waitingCount="0" stopTime="0.00" timeLoss="33.89" rerouteNo="0" devices="tripinfo_S2N_53" vType="ego_car" speedFactor="1.02" vaporized=""/>
    <tripinfo id="N2S_54" depart="184.00" departLane="NS_0" departPos="5.00" departSpeed="10.00" departDelay="0.00" arrival="242.00" arrivalLane="-SN_0" arrivalPos="250.00" arrivalSpeed="13.40" duration="58.00" routeLength="509.40" waitingTime="0.00" waitingCount="0" stopTime="0.00" timeLoss="31.89" rerouteNo="0" devices="tripinfo_N2S_54" vType="ego_car" speedFactor="1.10" vaporized=""/>
    <tripinfo id="S2N_55" depart="189.00" departLane="SN_0" departPos="5.00" departSpeed="10.00" departDelay="0.00" arrival="244.00" arrivalLane="-NS_0" arrivalPos="250.00" arrivalSpeed="13.27" duration="55.00" routeLength="509.40" waitingTime="0.00" waitingCount="0" stopTime="0.00" timeLoss="29.16" rerouteNo="0" devices="tripinfo_S2N_55" vType="ego_car" speedFactor="1.00" vaporized=""/>
    <tripinfo id="N2S_56" depart="191.00" departLane="NS_0" departPos="5.00" departSpeed="10.00" departDelay="0.00" arrival="244.00" arrivalLane="-SN_0" arrivalPos="250.00" arrivalSpeed="13.28" duration="53.00" routeLength="509.40" waitingTime="0.00" waitingCount="0" stopTime="0.00" timeLoss="27.03" rerouteNo="0" devices="tripinfo_N2S_56" vType="ego_car" speedFactor="1.00" vaporized=""/>
    <tripinfo id="S2N_57" depart="196.00" departLane="SN_0" departPos="5.00" departSpeed="10.00" departDelay="0.00" arrival="246.00" arrivalLane="-NS_0" arrivalPos="250.00" arrivalSpeed="13.24" duration="50.00" routeLength="509.40" waitingTime="0.00" waitingCount="0" stopTime="0.00" timeLoss="21.56" rerouteNo="0" devices="tripinfo_S2N_57" vType="ego_car" speedFactor="0.90" vaporized=""/>
    <tripinfo id="N2S_58" depart="198.00" departLane="NS_0" departPos="5.00" departSpeed="10.00" departDelay="0.00" arrival="246.00" arrivalLane="-SN_0" arrivalPos="250.00" arrivalSpeed="13.24" duration="48.00" routeLength="509.40" waitingTime="0.00" waitingCount="0" stopTime="0.00" timeLoss="22.50" rerouteNo="0" devices="tripinfo_N2S_58" vType="ego_car" speedFactor="1.14" vaporized=""/>
    <tripinfo id="S2N_59" depart="203.00" departLane="SN_0" departPos="5.00" departSpeed="10.00" departDelay="0.00" arrival="249.00" arrivalLane="-NS_0" arrivalPos="250.00" arrivalSpeed="13.33" duration="46.00" routeLength="509.40" waitingTime="0.00" waitingCount="0" stopTime="0.00" timeLoss="19.95" rerouteNo="0" devices="tripinfo_S2N_59" vType="ego_car" speedFactor="1.02" vaporized=""/>
    <tripinfo id="N2S_60" depart="205.00" departLane="NS_0" departPos="5.00" departSpeed="10.00" departDelay="0.00" arrival="249.00" arrivalLane="-SN_0" arrivalPos="250.00" arrivalSpeed="13.39" duration="44.00" routeLength="509.40" waitingTime="0.00" waitingCount="0" stopTime="0.00" timeLoss="17.19" rerouteNo="0" devices="tripinfo_N2S_60" vType="ego_car" speedFactor="0.97" vaporized=""/>
    <tripinfo id="S2N_61" depart="210.00" departLane="SN_0" departPos="5.00" departSpeed="10.00" departDelay="0.00" arrival="251.00" arrivalLane="-NS_0" arrivalPos="250.00" arrivalSpeed="13.25" duration="41.00" routeLength="509.40" waitingTime="0.00" waitingCount="0" stopTime="0.00" timeLoss="15.29" rerouteNo="0" devices="tripinfo_S2N_61" vType="ego_car" speedFactor="1.08" vaporized=""/>
    <tripinfo id="N2S_62" depart="212.00" departLane="NS_0" departPos="5.00" departSpeed="10.00" departDelay="0.00" arrival="251.00" arrivalLane="-SN_0" arrivalPos="250.00" arrivalSpeed="13.24" duration="39.00" routeLength="509.40" waitingTime="0.00" waitingCount="0" stopTime="0.00" timeLoss="13.20" rerouteNo="0" devices="tripinfo_N2S_62" vType="ego_car" speedFactor="1.12" vaporized=""/>
    <tripinfo id="S2N_63" depart="217.00" departLane="SN_0" departPos="5.00" departSpeed="10.00" departDelay="0.00" arrival="254.00" arrivalLane="-NS_0" arrivalPos="250.00" arrivalSpeed="13.47" duration="37.00" routeLength="509.40" waitingTime="0.00" waitingCount="0" stopTime="0.00" timeLoss="11.43" rerouteNo="0" devices="tripinfo_S2N_63" vType="ego_car" speedFactor="1.02" vaporized=""/>
    <tripinfo id="N2S_64" depart="219.00" departLane="NS_0" departPos="5.00" departSpeed="10.00" departDelay="0.00" arrival="255.00" arrivalLane="-SN_0" arrivalPos="250.00" arrivalSpeed="13.60" duration="36.00" routeLength="509.40" waitingTime="0.00" waitingCount="0" stopTime="0.00" timeLoss="9.69" rerouteNo="0" devices="tripinfo_N2S_64" vType="ego_car" speedFactor="0.99" vaporized=""/>
    <tripinfo id="S2N_65" depart="224.00" departLane="SN_0" departPos="5.00" departSpeed="10.00" departDelay="0.00" arrival="300.00" arrivalLane="-NS_0" arrivalPos="250.00" arrivalSpeed="13.79" duration="76.00" routeLength="509.40" waitingTime="0.00" waitingCount="0" stopTime="0.00" timeLoss="48.48" rerouteNo="0" devices="tripinfo_S2N_65" vType="ego_car" speedFactor="0.94" vaporized=""/>
    <tripinfo id="N2S_66" depart="226.00" departLane="NS_0" departPos="5.00" departSpeed="10.00" departDelay="0.00" arrival="300.00" arrivalLane="-SN_0" arrivalPos="250.00" arrivalSpeed="13.79" duration="74.00" routeLength="509.40" waitingTime="0.00" waitingCount="0" stopTime="0.00" timeLoss="44.76" rerouteNo="0" devices="tripinfo_N2S_66" vType="ego_car" speedFactor="0.88" vaporized=""/>
    <tripinfo id="S2N_67" depart="231.00" departLane="SN_0" departPos="5.00" departSpeed="10.00" departDelay="0.00" arrival="302.00" arrivalLane="-NS_0" arrivalPos="250.00" arrivalSpeed="13.45" duration="71.00" routeLength="509.40" waitingTime="0.00" waitingCount="0" stopTime="0.00" timeLoss="42.88" rerouteNo="0" devices="tripinfo_S2N_67" vType="ego_car" speedFactor="0.91" vaporized=""/>
    <tripinfo id="N2S_68" depart="233.00" departLane="NS_0" departPos="5.00" departSpeed="10.00" departDelay="0.00" arrival="302.00" arrivalLane="-SN_0" arrivalPos="250.00" arrivalSpeed="13.45" duration="69.00" routeLength="509.40" waitingTime="0.00" waitingCount="0" stopTime="0.00" timeLoss="41.12" rerouteNo="0" devices="tripinfo_N2S_68" vType="ego_car" speedFactor="0.91" vaporized=""/>
    <tripinfo id="S2N_69" depart="238.00" departLane="SN_0" departPos="5.00" departSpeed="10.00" departDelay="0.00" arrival="305.00" arrivalLane="-NS_0" arrivalPos="250.00" arrivalSpeed="13.44" duration="67.00" routeLength="509.40" waitingTime="0.00" waitingCount="0" stopTime="0.00" timeLoss="41.10" rerouteNo="0" devices="tripinfo_S2N_69" vType="ego_car" speedFactor="1.04" vaporized=""/>
    <tripinfo id="N2S_70" depart="240.00" departLane="NS_0" departPos="5.00" departSpeed="10.00" departDelay="0.00" arrival="305.00" arrivalLane="-SN_0" arrivalPos="250.00" arrivalSpeed="13.44" duration="65.00" routeLength="509.40" waitingTime="0.00" waitingCount="0" stopTime="0.00" timeLoss="39.10" rerouteNo="0" devices="tripinfo_N2S_70" vType="ego_car" speedFactor="1.02" vaporized=""/>
    <tripinfo id="S2N_71" depart="245.00" departLane="SN_0" departPos="5.00" departSpeed="10.00" departDelay="0.00" arrival="307.00" arrivalLane="-NS_0" arrivalPos="250.00" arrivalSpeed="13.27" duration="62.00" routeLength="509.40" waitingTime="0.00" waitingCount="0" stopTime="0.00" timeLoss="36.32" rerouteNo="0" devices="tripinfo_S2N_71" vType="ego_car" speedFactor="1.02" vaporized=""/>
    <tripinfo id="N2S_72" depart="247.00" departLane="NS_0" departPos="5.00" departSpeed="10.00" departDelay="0.00" arrival="307.00" arrivalLane="-SN_0" arrivalPos="250.00" arrivalSpeed="13.27" duration="60.00" routeLength="509.40" waitingTime="0.00" waitingCount="0" stopTime="0.00" timeLoss="33.61" rerouteNo="0" devices="tripinfo_N2S_72" vType="ego_car" speedFactor="0.97" vaporized=""/>
    <tripinfo id="S2N_73" depart="252.00" departLane="SN_0" departPos="5.00" departSpeed="10.00" departDelay="0.00" arrival="310.00" arrivalLane="-NS_0" arrivalPos="250.00" arrivalSpeed="13.40" duration="58.00" routeLength="509.40" waitingTime="0.00" waitingCount="0" stopTime="0.00" timeLoss="30.23" rerouteNo="0" devices="tripinfo_S2N_73" vType="ego_car" speedFactor="0.94" vaporized=""/>