<?xml version="1.0" encoding="UTF-8"?>

<!-- generated on 2023-05-10 22:50:40 by Eclipse SUMO GUI Version v1_16_0+0802-cb0bb8ac9af
<configuration xmlns:xsi="http://www.w3.org/2001/XMLSchema-instance" xsi:noNamespaceSchemaLocation="http://sumo.dlr.de/xsd/sumoConfiguration.xsd">

    <input>
        <net-file value="/home/yuwz/graduation_design/DDPG5/double_test/intersection.net.xml"/>
        <route-files value="/home/yuwz/graduation_design/DDPG5/double_test/intersection1.rou.xml"/>
    </input>

    <output>
        <tripinfo-output value="/home/yuwz/graduation_design/DDPG5/double_test/tripinfo.xml"/>
    </output>

    <time>
        <begin value="0"/>
        <end value="3600"/>
        <step-length value="1"/>
    </time>

    <processing>
        <waiting-time-memory value="2000"/>
    </processing>

    <report>
        <no-step-log value="true"/>
    </report>

    <traci_server>
        <remote-port value="51501"/>
    </traci_server>

</configuration>
-->

<tripinfos xmlns:xsi="http://www.w3.org/2001/XMLSchema-instance" xsi:noNamespaceSchemaLocation="http://sumo.dlr.de/xsd/tripinfo_file.xsd">
    <tripinfo id="E2W_2" depart="100.00" departLane="EW0_0" departPos="5.00" departSpeed="10.00" departDelay="0.00" arrival="278.00" arrivalLane="EW2_0" arrivalPos="892.80" arrivalSpeed="18.77" duration="178.00" routeLength="2695.00" waitingTime="4.00" waitingCount="1" stopTime="0.00" timeLoss="13.36" rerouteNo="0" devices="tripinfo_E2W_2 battery_E2W_2" vType="ego_car" speedFactor="0.94" vaporized=""/>
    <tripinfo id="W2E_1" depart="89.00" departLane="WE0_0" departPos="5.00" departSpeed="10.00" departDelay="0.00" arrival="291.00" arrivalLane="WE2_0" arrivalPos="892.80" arrivalSpeed="14.72" duration="202.00" routeLength="2695.00" waitingTime="40.00" waitingCount="1" stopTime="0.00" timeLoss="50.26" rerouteNo="0" devices="tripinfo_W2E_1 battery_W2E_1" vType="ego_car" speedFactor="1.06" vaporized=""/>
    <tripinfo id="E2W_3" depart="155.00" departLane="EW0_0" departPos="5.00" departSpeed="10.00" departDelay="0.00" arrival="366.00" arrivalLane="EW2_0" arrivalPos="892.80" arrivalSpeed="20.00" duration="211.00" routeLength="2695.00" waitingTime="40.00" waitingCount="2" stopTime="0.00" timeLoss="57.13" rerouteNo="0" devices="tripinfo_E2W_3 battery_E2W_3" vType="ego_car" speedFactor="1.01" vaporized=""/>
    <tripinfo id="W2E_4" depart="173.00" departLane="WE0_0" departPos="5.00" departSpeed="10.00" departDelay="0.00" arrival="379.00" arrivalLane="WE2_0" arrivalPos="892.80" arrivalSpeed="15.04" duration="206.00" routeLength="2695.00" waitingTime="39.00" waitingCount="2" stopTime="0.00" timeLoss="56.43" rerouteNo="0" devices="tripinfo_W2E_4 battery_W2E_4" vType="ego_car" speedFactor="1.08" vaporized=""/>
    <tripinfo id="W2E_5" depart="193.00" departLane="WE0_0" departPos="5.00" departSpeed="10.00" departDelay="0.00" arrival="384.00" arrivalLane="WE2_0" arrivalPos="892.80" arrivalSpeed="14.31" duration="191.00" routeLength="2695.00" waitingTime="29.00" waitingCount="1" stopTime="0.00" timeLoss="37.52" rerouteNo="0" devices="tripinfo_W2E_5 battery_W2E_5" vType="ego_car" speedFactor="1.03" vaporized=""/>
    <tripinfo id="E2W_6" depart="214.00" departLane="EW0_0" departPos="5.00" departSpeed="10.00" departDelay="0.00" arrival="464.00" arrivalLane="EW2_0" arrivalPos="892.80" arrivalSpeed="16.62" duration="250.00" routeLength="2695.00" waitingTime="49.00" waitingCount="2" stopTime="0.00" timeLoss="63.61" rerouteNo="0" devices="tripinfo_E2W_6 battery_E2W_6" vType="ego_car" speedFactor="0.83" vaporized=""/>
    <tripinfo id="E2W_8" depart="233.00" departLane="EW0_0" departPos="5.00" departSpeed="10.00" departDelay="0.00" arrival="465.00" arrivalLane="EW2_0" arrivalPos="892.80" arrivalSpeed="17.72" duration="232.00" routeLength="2695.00" waitingTime="36.00" waitingCount="2" stopTime="0.00" timeLoss="57.44" rerouteNo="0" devices="tripinfo_E2W_8 battery_E2W_8" vType="ego_car" speedFactor="0.89" vaporized=""/>
    <tripinfo id="E2W_9" depart="245.00" departLane="EW0_0" departPos="5.00" departSpeed="10.00" departDelay="0.00" arrival="466.00" arrivalLane="EW2_0" arrivalPos="892.80" arrivalSpeed="18.12" duration="221.00" routeLength="2695.00" waitingTime="30.00" waitingCount="2" stopTime="0.00" timeLoss="56.45" rerouteNo="0" devices="tripinfo_E2W_9 battery_E2W_9" vType="ego_car" speedFactor="0.94" vaporized=""/>
    <tripinfo id="E2W_12" depart="276.00" departLane="EW0_0" departPos="5.00" departSpeed="10.00" departDelay="0.00" arrival="468.00" arrivalLane="EW2_0" arrivalPos="892.80" arrivalSpeed="19.62" duration="192.00" routeLength="2695.00" waitingTime="21.00" waitingCount="1" stopTime="0.00" timeLoss="38.74" rerouteNo="0" devices="tripinfo_E2W_12 battery_E2W_12" vType="ego_car" speedFactor="1.03" vaporized=""/>
    <tripinfo id="W2E_7" depart="224.00" departLane="WE0_0" departPos="5.00" departSpeed="10.00" departDelay="0.00" arrival="471.00" arrivalLane="WE2_0" arrivalPos="892.80" arrivalSpeed="14.53" duration="247.00" routeLength="2695.00" waitingTime="77.00" waitingCount="2" stopTime="0.00" timeLoss="94.90" rerouteNo="0" devices="tripinfo_W2E_7 battery_W2E_7" vType="ego_car" speedFactor="1.05" vaporized=""/>
    <tripinfo id="W2E_10" depart="258.00" departLane="WE0_0" departPos="5.00" departSpeed="10.00" departDelay="0.00" arrival="486.00" arrivalLane="WE2_0" arrivalPos="892.80" arrivalSpeed="11.90" duration="228.00" routeLength="2695.00" waitingTime="32.00" waitingCount="2" stopTime="0.00" timeLoss="46.63" rerouteNo="0" devices="tripinfo_W2E_10 battery_W2E_10" vType="ego_car" speedFactor="0.86" vaporized=""/>
    <tripinfo id="W2E_11" depart="262.00" departLane="WE0_0" departPos="5.00" departSpeed="10.00" departDelay="0.00" arrival="487.00" arrivalLane="WE2_0" arrivalPos="892.80" arrivalSpeed="13.40" duration="225.00" routeLength="2695.00" waitingTime="32.00" waitingCount="2" stopTime="0.00" timeLoss="75.40" rerouteNo="0" devices="tripinfo_W2E_11 battery_W2E_11" vType="ego_car" speedFactor="1.09" vaporized=""/>
    <tripinfo id="W2E_13" depart="294.00" departLane="WE0_0" departPos="5.00" departSpeed="10.00" departDelay="0.00" arrival="488.00" arrivalLane="WE2_0" arrivalPos="892.80" arrivalSpeed="13.40" duration="194.00" routeLength="2695.00" waitingTime="20.00" waitingCount="1" stopTime="0.00" timeLoss="42.21" rerouteNo="0" devices="tripinfo_W2E_13 battery_W2E_13" vType="ego_car" speedFactor="1.05" vaporized=""/>
    <tripinfo id="W2E_14" depart="308.00" departLane="WE0_0" departPos="5.00" departSpeed="10.00" departDelay="0.00" arrival="490.00" arrivalLane="WE2_0" arrivalPos="892.80" arrivalSpeed="14.90" duration="182.00" routeLength="2695.00" waitingTime="7.00" waitingCount="1" stopTime="0.00" timeLoss="33.91" rerouteNo="0" devices="tripinfo_W2E_14 battery_W2E_14" vType="ego_car" speedFactor="1.12" vaporized=""/>
    <tripinfo id="E2W_18" depart="340.00" departLane="EW0_0" departPos="5.00" departSpeed="10.00" departDelay="0.00" arrival="548.00" arrivalLane="EW2_0" arrivalPos="892.80" arrivalSpeed="18.83" duration="208.00" routeLength="2695.00" waitingTime="35.00" waitingCount="1" stopTime="0.00" timeLoss="44.00" rerouteNo="0" devices="tripinfo_E2W_18 battery_E2W_18" vType="ego_car" speedFactor="0.94" vaporized=""/>
    <tripinfo id="E2W_20" depart="369.00" departLane="EW0_0" departPos="5.00" departSpeed="10.00" departDelay="0.00" arrival="549.00" arrivalLane="EW2_0" arrivalPos="892.80" arrivalSpeed="20.00" duration="180.00" routeLength="2695.00" waitingTime="22.00" waitingCount="1" stopTime="0.00" timeLoss="34.54" rerouteNo="0" devices="tripinfo_E2W_20 battery_E2W_20" vType="ego_car" speedFactor="1.16" vaporized=""/>
    <tripinfo id="E2W_21" depart="375.00" departLane="EW0_0" departPos="5.00" departSpeed="10.00" departDelay="0.00" arrival="551.00" arrivalLane="EW2_0" arrivalPos="892.80" arrivalSpeed="20.00" duration="176.00" routeLength="2695.00" waitingTime="10.00" waitingCount="1" stopTime="0.00" timeLoss="22.01" rerouteNo="0" devices="tripinfo_E2W_21 battery_E2W_21" vType="ego_car" speedFactor="1.02" vaporized=""/>
    <tripinfo id="W2E_15" depart="311.00" departLane="WE0_0" departPos="5.00" departSpeed="10.00" departDelay="0.00" arrival="564.00" arrivalLane="WE2_0" arrivalPos="892.80" arrivalSpeed="13.77" duration="253.00" routeLength="2695.00" waitingTime="81.00" waitingCount="2" stopTime="0.00" timeLoss="96.79" rerouteNo="0" devices="tripinfo_W2E_15 battery_W2E_15" vType="ego_car" speedFactor="0.99" vaporized=""/>
    <tripinfo id="W2E_16" depart="333.00" departLane="WE0_0" departPos="5.00" departSpeed="10.00" departDelay="0.00" arrival="570.00" arrivalLane="WE2_0" arrivalPos="892.80" arrivalSpeed="12.87" duration="237.00" routeLength="2695.00" waitingTime="55.00" waitingCount="2" stopTime="0.00" timeLoss="70.07" rerouteNo="0" devices="tripinfo_W2E_16 battery_W2E_16" vType="ego_car" speedFactor="0.93" vaporized=""/>
    <tripinfo id="W2E_17" depart="334.00" departLane="WE0_0" departPos="5.00" departSpeed="10.00" departDelay="0.00" arrival="576.00" arrivalLane="WE2_0" arrivalPos="892.80" arrivalSpeed="12.20" duration="242.00" routeLength="2695.00" waitingTime="50.00" waitingCount="2" stopTime="0.00" timeLoss="65.06" rerouteNo="0" devices="tripinfo_W2E_17 battery_W2E_17" vType="ego_car" speedFactor="0.88" vaporized=""/>
    <tripinfo id="W2E_19" depart="365.00" departLane="WE0_0" departPos="5.00" departSpeed="10.00" departDelay="0.00" arrival="577.00" arrivalLane="WE2_0" arrivalPos="892.80" arrivalSpeed="13.00" duration="212.00" routeLength="2695.00" waitingTime="32.00" waitingCount="1" stopTime="0.00" timeLoss="46.41" rerouteNo="0" devices="tripinfo_W2E_19 battery_W2E_19" vType="ego_car" speedFactor="0.94" vaporized=""/>
    <tripinfo id="W2E_22" depart="385.00" departLane="WE0_0" departPos="5.00" departSpeed="10.00" departDelay="0.00" arrival="578.00" arrivalLane="WE2_0" arrivalPos="892.80" arrivalSpeed="13.70" duration="193.00" routeLength="2695.00" waitingTime="20.00" waitingCount="1" stopTime="0.00" timeLoss="38.95" rerouteNo="0" devices="tripinfo_W2E_22 battery_W2E_22" vType="ego_car" speedFactor="1.01" vaporized=""/>
    <tripinfo id="E2W_24" depart="410.00" departLane="EW0_0" departPos="5.00" departSpeed="10.00" departDelay="0.00" arrival="641.00" arrivalLane="EW2_0" arrivalPos="892.80" arrivalSpeed="17.79" duration="231.00" routeLength="2695.00" waitingTime="42.00" waitingCount="2" stopTime="0.00" timeLoss="56.62" rerouteNo="0" devices="tripinfo_E2W_24 battery_E2W_24" vType="ego_car" speedFactor="0.89" vaporized=""/>
    <tripinfo id="E2W_25" depart="416.00" departLane="EW0_0" departPos="5.00" departSpeed="10.00" departDelay="0.00" arrival="646.00" arrivalLane="EW2_0" arrivalPos="892.80" arrivalSpeed="16.51" duration="230.00" routeLength="2695.00" waitingTime="28.00" waitingCount="1" stopTime="0.00" timeLoss="42.12" rerouteNo="0" devices="tripinfo_E2W_25 battery_E2W_25" vType="ego_car" speedFactor="0.83" vaporized=""/>
    <tripinfo id="E2W_28" depart="429.00" departLane="EW0_0" departPos="5.00" departSpeed="10.00" departDelay="0.00" arrival="647.00" arrivalLane="EW2_0" arrivalPos="892.80" arrivalSpeed="18.01" duration="218.00" routeLength="2695.00" waitingTime="28.00" waitingCount="1" stopTime="0.00" timeLoss="54.75" rerouteNo="0" devices="tripinfo_E2W_28 battery_E2W_28" vType="ego_car" speedFactor="0.95" vaporized=""/>
    <tripinfo id="E2W_30" depart="462.00" departLane="EW0_0" departPos="5.00" departSpeed="10.00" departDelay="0.00" arrival="648.00" arrivalLane="EW2_0" arrivalPos="892.80" arrivalSpeed="18.01" duration="186.00" routeLength="2695.00" waitingTime="6.00" waitingCount="1" stopTime="0.00" timeLoss="20.15" rerouteNo="0" devices="tripinfo_E2W_30 battery_E2W_30" vType="ego_car" speedFactor="0.93" vaporized=""/>
    <tripinfo id="W2E_23" depart="405.00" departLane="WE0_0" departPos="5.00" departSpeed="10.00" departDelay="0.00" arrival="656.00" arrivalLane="WE2_0" arrivalPos="892.80" arrivalSpeed="13.54" duration="251.00" routeLength="2695.00" waitingTime="74.00" waitingCount="2" stopTime="0.00" timeLoss="91.58" rerouteNo="0" devices="tripinfo_W2E_23 battery_W2E_23" vType="ego_car" speedFactor="0.97" vaporized=""/>
    <tripinfo id="W2E_26" depart="421.00" departLane="WE0_0" departPos="5.00" departSpeed="10.00" departDelay="0.00" arrival="664.00" arrivalLane="WE2_0" arrivalPos="892.80" arrivalSpeed="12.12" duration="243.00" routeLength="2695.00" waitingTime="51.00" waitingCount="2" stopTime="0.00" timeLoss="65.81" rerouteNo="0" devices="tripinfo_W2E_26 battery_W2E_26" vType="ego_car" speedFactor="0.87" vaporized=""/>
    <tripinfo id="W2E_27" depart="428.00" departLane="WE0_0" departPos="5.00" departSpeed="10.00" departDelay="0.00" arrival="666.00" arrivalLane="WE2_0" arrivalPos="892.80" arrivalSpeed="12.74" duration="238.00" routeLength="2695.00" waitingTime="48.00" waitingCount="2" stopTime="0.00" timeLoss="68.84" rerouteNo="0" devices="tripinfo_W2E_27 battery_W2E_27" vType="ego_car" speedFactor="0.92" vaporized=""/>
    <tripinfo id="W2E_29" depart="433.00" departLane="WE0_0" departPos="5.00" departSpeed="10.00" departDelay="0.00" arrival="667.00" arrivalLane="WE2_0" arrivalPos="892.80" arrivalSpeed="14.24" duration="234.00" routeLength="2695.00" waitingTime="47.00" waitingCount="2" stopTime="0.00" timeLoss="86.84" rerouteNo="0" devices="tripinfo_W2E_29 battery_W2E_29" vType="ego_car" speedFactor="1.13" vaporized=""/>
    <tripinfo id="W2E_31" depart="465.00" departLane="WE0_0" departPos="5.00" departSpeed="10.00" departDelay="0.00" arrival="669.00" arrivalLane="WE2_0" arrivalPos="892.80" arrivalSpeed="15.74" duration="204.00" routeLength="2695.00" waitingTime="30.00" waitingCount="1" stopTime="0.00" timeLoss="58.48" rerouteNo="0" devices="tripinfo_W2E_31 battery_W2E_31" vType="ego_car" speedFactor="1.18" vaporized=""/>
    <tripinfo id="W2E_32" depart="468.00" departLane="WE0_0" departPos="5.00" departSpeed="10.00" departDelay="0.00" arrival="670.00" arrivalLane="WE2_0" arrivalPos="892.80" arrivalSpeed="15.74" duration="202.00" routeLength="2695.00" waitingTime="29.00" waitingCount="1" stopTime="0.00" timeLoss="55.70" rerouteNo="0" devices="tripinfo_W2E_32 battery_W2E_32" vType="ego_car" speedFactor="1.15" vaporized=""/>
    <tripinfo id="E2W_33" depart="475.00" departLane="EW0_0" departPos="5.00" departSpeed="10.00" departDelay="0.00" arrival="726.00" arrivalLane="EW2_0" arrivalPos="892.80" arrivalSpeed="20.00" duration="251.00" routeLength="2695.00" waitingTime="79.00" waitingCount="2" stopTime="0.00" timeLoss="96.31" rerouteNo="0" devices="tripinfo_E2W_33 battery_E2W_33" vType="ego_car" speedFactor="1.01" vaporized=""/>
    <tripinfo id="E2W_36" depart="503.00" departLane="EW0_0" departPos="5.00" departSpeed="10.00" departDelay="0.00" arrival="728.00" arrivalLane="EW2_0" arrivalPos="892.80" arrivalSpeed="20.00" duration="225.00" routeLength="2695.00" waitingTime="53.00" waitingCount="2" stopTime="0.00" timeLoss="70.97" rerouteNo="0" devices="tripinfo_E2W_36 battery_E2W_36" vType="ego_car" speedFactor="1.02" vaporized=""/>
    <tripinfo id="E2W_38" depart="525.00" departLane="EW0_0" departPos="5.00" departSpeed="10.00" departDelay="0.00" arrival="729.00" arrivalLane="EW2_0" arrivalPos="892.80" arrivalSpeed="20.00" duration="204.00" routeLength="2695.00" waitingTime="39.00" waitingCount="2" stopTime="0.00" timeLoss="58.81" rerouteNo="0" devices="tripinfo_E2W_38 battery_E2W_38" vType="ego_car" speedFactor="1.18" vaporized=""/>
    <tripinfo id="E2W_42" depart="545.00" departLane="EW0_0" departPos="5.00" departSpeed="10.00" departDelay="0.00" arrival="732.00" arrivalLane="EW2_0" arrivalPos="892.80" arrivalSpeed="19.14" duration="187.00" routeLength="2695.00" waitingTime="15.00" waitingCount="1" stopTime="0.00" timeLoss="25.13" rerouteNo="0" devices="tripinfo_E2W_42 battery_E2W_42" vType="ego_car" speedFactor="0.96" vaporized=""/>
    <tripinfo id="E2W_43" depart="547.00" departLane="EW0_0" departPos="5.00" departSpeed="10.00" departDelay="2.00" arrival="733.00" arrivalLane="EW2_0" arrivalPos="892.80" arrivalSpeed="20.00" duration="186.00" routeLength="2695.00" waitingTime="15.00" waitingCount="1" stopTime="0.00" timeLoss="36.86" rerouteNo="0" devices="tripinfo_E2W_43 battery_E2W_43" vType="ego_car" speedFactor="1.09" vaporized=""/>
    <tripinfo id="W2E_34" depart="494.00" departLane="WE0_0" departPos="5.00" departSpeed="10.00" departDelay="0.00" arrival="735.00" arrivalLane="WE2_0" arrivalPos="892.80" arrivalSpeed="16.28" duration="241.00" routeLength="2695.00" waitingTime="77.00" waitingCount="2" stopTime="0.00" timeLoss="95.79" rerouteNo="0" devices="tripinfo_W2E_34 battery_W2E_34" vType="ego_car" speedFactor="1.17" vaporized=""/>
    <tripinfo id="W2E_35" depart="496.00" departLane="WE0_0" departPos="5.00" departSpeed="10.00" departDelay="2.00" arrival="746.00" arrivalLane="WE2_0" arrivalPos="892.80" arrivalSpeed="13.82" duration="250.00" routeLength="2695.00" waitingTime="76.00" waitingCount="2" stopTime="0.00" timeLoss="93.88" rerouteNo="0" devices="tripinfo_W2E_35 battery_W2E_35" vType="ego_car" speedFactor="0.99" vaporized=""/>
    <tripinfo id="W2E_37" depart="519.00" departLane="WE0_0" departPos="5.00" departSpeed="10.00" departDelay="0.00" arrival="749.00" arrivalLane="WE2_0" arrivalPos="892.80" arrivalSpeed="13.52" duration="230.00" routeLength="2695.00" waitingTime="53.00" waitingCount="2" stopTime="0.00" timeLoss="70.23" rerouteNo="0" devices="tripinfo_W2E_37 battery_W2E_37" vType="ego_car" speedFactor="0.97" vaporized=""/>
    <tripinfo id="W2E_39" depart="538.00" departLane="WE0_0" departPos="5.00" departSpeed="10.00" departDelay="0.00" arrival="750.00" arrivalLane="WE2_0" arrivalPos="892.80" arrivalSpeed="15.02" duration="212.00" routeLength="2695.00" waitingTime="36.00" waitingCount="2" stopTime="0.00" timeLoss="62.99" rerouteNo="0" devices="tripinfo_W2E_39 battery_W2E_39" vType="ego_car" speedFactor="1.10" vaporized=""/>
    <tripinfo id="W2E_40" depart="540.00" departLane="WE0_0" departPos="5.00" departSpeed="10.00" departDelay="0.00" arrival="757.00" arrivalLane="WE2_0" arrivalPos="892.80" arrivalSpeed="12.51" duration="217.00" routeLength="2695.00" waitingTime="32.00" waitingCount="1" stopTime="0.00" timeLoss="44.50" rerouteNo="0" devices="tripinfo_W2E_40 battery_W2E_40" vType="ego_car" speedFactor="0.90" vaporized=""/>
    <tripinfo id="W2E_41" depart="543.00" departLane="WE0_0" departPos="5.00" departSpeed="10.00" departDelay="0.00" arrival="758.00" arrivalLane="WE2_0" arrivalPos="892.80" arrivalSpeed="14.01" duration="215.00" routeLength="2695.00" waitingTime="32.00" waitingCount="1" stopTime="0.00" timeLoss="61.92" rerouteNo="0" devices="tripinfo_W2E_41 battery_W2E_41" vType="ego_car" speedFactor="1.03" vaporized=""/>
    <tripinfo id="W2E_44" depart="560.00" departLane="WE0_0" departPos="5.00" departSpeed="10.00" departDelay="0.00" arrival="760.00" arrivalLane="WE2_0" arrivalPos="892.80" arrivalSpeed="14.42" duration="200.00" routeLength="2695.00" waitingTime="28.00" waitingCount="1" stopTime="0.00" timeLoss="46.74" rerouteNo="0" devices="tripinfo_W2E_44 battery_W2E_44" vType="ego_car" speedFactor="1.04" vaporized=""/>
    <tripinfo id="W2E_45" depart="565.00" departLane="WE0_0" departPos="5.00" departSpeed="10.00" departDelay="0.00" arrival="761.00" arrivalLane="WE2_0" arrivalPos="892.80" arrivalSpeed="14.49" duration="196.00" routeLength="2695.00" waitingTime="24.00" waitingCount="1" stopTime="0.00" timeLoss="43.58" rerouteNo="0" devices="tripinfo_W2E_45 battery_W2E_45" vType="ego_car" speedFactor="1.04" vaporized=""/>
    <tripinfo id="W2E_46" depart="566.00" departLane="WE0_0" departPos="5.00" departSpeed="10.00" departDelay="0.00" arrival="762.00" arrivalLane="WE2_0" arrivalPos="892.80" arrivalSpeed="15.11" duration="196.00" routeLength="2695.00" waitingTime="24.00" waitingCount="1" stopTime="0.00" timeLoss="46.42" rerouteNo="0" devices="tripinfo_W2E_46 battery_W2E_46" vType="ego_car" speedFactor="1.09" vaporized=""/>
    <tripinfo id="E2W_48" depart="601.00" departLane="EW0_0" departPos="5.00" departSpeed="10.00" departDelay="0.00" arrival="820.00" arrivalLane="EW2_0" arrivalPos="892.80" arrivalSpeed="18.01" duration="219.00" routeLength="2695.00" waitingTime="33.00" waitingCount="1" stopTime="0.00" timeLoss="47.18" rerouteNo="0" devices="tripinfo_E2W_48 battery_E2W_48" vType="ego_car" speedFactor="0.90" vaporized=""/>
    <tripinfo id="E2W_49" depart="608.00" departLane="EW0_0" departPos="5.00" departSpeed="10.00" departDelay="0.00" arrival="823.00" arrivalLane="EW2_0" arrivalPos="892.80" arrivalSpeed="17.54" duration="215.00" routeLength="2695.00" waitingTime="30.00" waitingCount="1" stopTime="0.00" timeLoss="38.42" rerouteNo="0" devices="tripinfo_E2W_49 battery_E2W_49" vType="ego_car" speedFactor="0.88" vaporized=""/>
    <tripinfo id="E2W_50" depart="610.00" departLane="EW0_0" departPos="5.00" departSpeed="10.00" departDelay="0.00" arrival="825.00" arrivalLane="EW2_0" arrivalPos="892.80" arrivalSpeed="17.01" duration="215.00" routeLength="2695.00" waitingTime="25.00" waitingCount="1" stopTime="0.00" timeLoss="33.50" rerouteNo="0" devices="tripinfo_E2W_50 battery_E2W_50" vType="ego_car" speedFactor="0.85" vaporized=""/>
    <tripinfo id="E2W_51" depart="612.00" departLane="EW0_0" departPos="5.00" departSpeed="10.00" departDelay="0.00" arrival="827.00" arrivalLane="EW2_0" arrivalPos="892.80" arrivalSpeed="17.10" duration="215.00" routeLength="2695.00" waitingTime="25.00" waitingCount="1" stopTime="0.00" timeLoss="33.98" rerouteNo="0" devices="tripinfo_E2W_51 battery_E2W_51" vType="ego_car" speedFactor="0.85" vaporized=""/>
    <tripinfo id="E2W_52" depart="625.00" departLane="EW0_0" departPos="5.00" departSpeed="10.00" departDelay="0.00" arrival="828.00" arrivalLane="EW2_0" arrivalPos="892.80" arrivalSpeed="18.60" duration="203.00" routeLength="2695.00" waitingTime="25.00" waitingCount="1" stopTime="0.00" timeLoss="57.64" rerouteNo="0" devices="tripinfo_E2W_52 battery_E2W_52" vType="ego_car" speedFactor="1.17" vaporized=""/>
    <tripinfo id="E2W_53" depart="628.00" departLane="EW0_0" departPos="5.00" departSpeed="10.00" departDelay="0.00" arrival="829.00" arrivalLane="EW2_0" arrivalPos="892.80" arrivalSpeed="18.60" duration="201.00" routeLength="2695.00" waitingTime="25.00" waitingCount="1" stopTime="0.00" timeLoss="47.65" rerouteNo="0" devices="tripinfo_E2W_53 battery_E2W_53" vType="ego_car" speedFactor="1.02" vaporized=""/>
    <tripinfo id="E2W_54" depart="631.00" departLane="EW0_0" departPos="5.00" departSpeed="10.00" departDelay="0.00" arrival="831.00" arrivalLane="EW2_0" arrivalPos="892.80" arrivalSpeed="20.00" duration="200.00" routeLength="2695.00" waitingTime="25.00" waitingCount="1" stopTime="0.00" timeLoss="50.62" rerouteNo="0" devices="tripinfo_E2W_54 battery_E2W_54" vType="ego_car" speedFactor="1.10" vaporized=""/>
    <tripinfo id="E2W_55" depart="632.00" departLane="EW0_0" departPos="5.00" departSpeed="10.00" departDelay="0.00" arrival="832.00" arrivalLane="EW2_0" arrivalPos="892.80" arrivalSpeed="20.00" duration="200.00" routeLength="2695.00" waitingTime="25.00" waitingCount="1" stopTime="0.00" timeLoss="45.35" rerouteNo="0" devices="tripinfo_E2W_55 battery_E2W_55" vType="ego_car" speedFactor="1.00" vaporized=""/>
    <tripinfo id="E2W_56" depart="643.00" departLane="EW0_0" departPos="5.00" departSpeed="10.00" departDelay="0.00" arrival="833.00" arrivalLane="EW2_0" arrivalPos="892.80" arrivalSpeed="19.92" duration="190.00" routeLength="2695.00" waitingTime="18.00" waitingCount="1" stopTime="0.00" timeLoss="34.92" rerouteNo="0" devices="tripinfo_E2W_56 battery_E2W_56" vType="ego_car" speedFactor="1.00" vaporized=""/>
    <tripinfo id="W2E_47" depart="586.00" departLane="WE0_0" departPos="5.00" departSpeed="10.00" departDelay="0.00" arrival="834.00" arrivalLane="WE2_0" arrivalPos="892.80" arrivalSpeed="13.85" duration="248.00" routeLength="2695.00" waitingTime="75.00" waitingCount="2" stopTime="0.00" timeLoss="92.82" rerouteNo="0" devices="tripinfo_W2E_47 battery_W2E_47" vType="ego_car" speedFactor="1.00" vaporized=""/>
    <tripinfo id="W2E_59" depart="657.00" departLane="WE0_0" departPos="5.00" departSpeed="10.00" departDelay="0.00" arrival="836.00" arrivalLane="WE2_0" arrivalPos="892.80" arrivalSpeed="14.22" duration="179.00" routeLength="2695.00" waitingTime="15.00" waitingCount="1" stopTime="0.00" timeLoss="25.03" rerouteNo="0" devices="tripinfo_W2E_59 battery_W2E_59" vType="ego_car" speedFactor="1.02" vaporized=""/>
    <tripinfo id="E2W_57" depart="646.00" departLane="EW0_0" departPos="5.00" departSpeed="10.00" departDelay="0.00" arrival="910.00" arrivalLane="EW2_0" arrivalPos="892.80" arrivalSpeed="17.98" duration="264.00" routeLength="2695.00" waitingTime="77.00" waitingCount="2" stopTime="0.00" timeLoss="92.14" rerouteNo="0" devices="tripinfo_E2W_57 battery_E2W_57" vType="ego_car" speedFactor="0.90" vaporized=""/>
    <tripinfo id="E2W_58" depart="655.00" departLane="EW0_0" departPos="5.00" departSpeed="10.00" departDelay="0.00" arrival="912.00" arrivalLane="EW2_0" arrivalPos="892.80" arrivalSpeed="20.00" duration="257.00" routeLength="2695.00" waitingTime="77.00" waitingCount="2" stopTime="0.00" timeLoss="109.78" rerouteNo="0" devices="tripinfo_E2W_58 battery_E2W_58" vType="ego_car" speedFactor="1.14" vaporized=""/>
    <tripinfo id="E2W_61" depart="686.00" departLane="EW0_0" departPos="5.00" departSpeed="10.00" departDelay="0.00" arrival="913.00" arrivalLane="EW2_0" arrivalPos="892.80" arrivalSpeed="20.00" duration="227.00" routeLength="2695.00" waitingTime="51.00" waitingCount="2" stopTime="0.00" timeLoss="76.96" rerouteNo="0" devices="tripinfo_E2W_61 battery_E2W_61" vType="ego_car" speedFactor="1.08" vaporized=""/>
    <tripinfo id="E2W_63" depart="695.00" departLane="EW0_0" departPos="5.00" departSpeed="10.00" departDelay="0.00" arrival="914.00" arrivalLane="EW2_0" arrivalPos="892.80" arrivalSpeed="20.00" duration="219.00" routeLength="2695.00" waitingTime="40.00" waitingCount="2" stopTime="0.00" timeLoss="65.33" rerouteNo="0" devices="tripinfo_E2W_63 battery_E2W_63" vType="ego_car" speedFactor="1.02" vaporized=""/>
    <tripinfo id="E2W_64" depart="702.00" departLane="EW0_0" departPos="5.00" departSpeed="10.00" departDelay="0.00" arrival="915.00" arrivalLane="EW2_0" arrivalPos="892.80" arrivalSpeed="19.74" duration="213.00" routeLength="2695.00" waitingTime="33.00" waitingCount="2" stopTime="0.00" timeLoss="56.65" rerouteNo="0" devices="tripinfo_E2W_64 battery_E2W_64" vType="ego_car" speedFactor="0.99" vaporized=""/>
    <tripinfo id="E2W_67" depart="718.00" departLane="EW0_0" departPos="5.00" departSpeed="10.00" departDelay="0.00" arrival="917.00" arrivalLane="EW2_0" arrivalPos="892.80" arrivalSpeed="18.14" duration="199.00" routeLength="2695.00" waitingTime="19.00" waitingCount="1" stopTime="0.00" timeLoss="28.38" rerouteNo="0" devices="tripinfo_E2W_67 battery_E2W_67" vType="ego_car" speedFactor="0.91" vaporized=""/>
    <tripinfo id="E2W_72" depart="737.00" departLane="EW0_0" departPos="5.00" departSpeed="10.00" departDelay="0.00" arrival="918.00" arrivalLane="EW2_0" arrivalPos="892.80" arrivalSpeed="19.46" duration="181.00" routeLength="2695.00" waitingTime="9.00" waitingCount="1" stopTime="0.00" timeLoss="22.31" rerouteNo="0" devices="tripinfo_E2W_72 battery_E2W_72" vType="ego_car" speedFactor="0.97" vaporized=""/>
    <tripinfo id="W2E_60" depart="675.00" departLane="WE0_0" departPos="5.00" departSpeed="10.00" departDelay="0.00" arrival="926.00" arrivalLane="WE2_0" arrivalPos="892.80" arrivalSpeed="13.47" duration="251.00" routeLength="2695.00" waitingTime="75.00" waitingCount="2" stopTime="0.00" timeLoss="90.77" rerouteNo="0" devices="tripinfo_W2E_60 battery_W2E_60" vType="ego_car" speedFactor="0.97" vaporized=""/>
    <tripinfo id="W2E_62" depart="689.00" departLane="WE0_0" departPos="5.00" departSpeed="10.00" departDelay="0.00" arrival="927.00" arrivalLane="WE2_0" arrivalPos="892.80" arrivalSpeed="14.97" duration="238.00" routeLength="2695.00" waitingTime="64.00" waitingCount="2" stopTime="0.00" timeLoss="89.97" rerouteNo="0" devices="tripinfo_W2E_62 battery_W2E_62" vType="ego_car" speedFactor="1.12" vaporized=""/>
    <tripinfo id="W2E_65" depart="704.00" departLane="WE0_0" departPos="5.00" departSpeed="10.00" departDelay="0.00" arrival="931.00" arrivalLane="WE2_0" arrivalPos="892.80" arrivalSpeed="13.02" duration="227.00" routeLength="2695.00" waitingTime="45.00" waitingCount="2" stopTime="0.00" timeLoss="61.41" rerouteNo="0" devices="tripinfo_W2E_65 battery_W2E_65" vType="ego_car" speedFactor="0.94" vaporized=""/>
    <tripinfo id="W2E_66" depart="705.00" departLane="WE0_0" departPos="5.00" departSpeed="10.00" departDelay="0.00" arrival="936.00" arrivalLane="WE2_0" arrivalPos="892.80" arrivalSpeed="12.26" duration="231.00" routeLength="2695.00" waitingTime="40.00" waitingCount="2" stopTime="0.00" timeLoss="55.64" rerouteNo="0" devices="tripinfo_W2E_66 battery_W2E_66" vType="ego_car" speedFactor="0.88" vaporized=""/>
    <tripinfo id="W2E_68" depart="723.00" departLane="WE0_0" departPos="5.00" departSpeed="10.00" departDelay="0.00" arrival="938.00" arrivalLane="WE2_0" arrivalPos="892.80" arrivalSpeed="12.70" duration="215.00" routeLength="2695.00" waitingTime="31.00" waitingCount="1" stopTime="0.00" timeLoss="45.33" rerouteNo="0" devices="tripinfo_W2E_68 battery_W2E_68" vType="ego_car" speedFactor="0.91" vaporized=""/>
    <tripinfo id="W2E_69" depart="725.00" departLane="WE0_0" departPos="5.00" departSpeed="10.00" departDelay="2.00" arrival="939.00" arrivalLane="WE2_0" arrivalPos="892.80" arrivalSpeed="14.20" duration="214.00" routeLength="2695.00" waitingTime="31.00" waitingCount="1" stopTime="0.00" timeLoss="61.67" rerouteNo="0" devices="tripinfo_W2E_69 battery_W2E_69" vType="ego_car" speedFactor="1.04" vaporized=""/>