<?xml version="1.0" encoding="UTF-8"?>

<!-- generated on 2023-04-19 11:14:06 by Eclipse SUMO GUI Version v1_16_0+0802-cb0bb8ac9af
<configuration xmlns:xsi="http://www.w3.org/2001/XMLSchema-instance" xsi:noNamespaceSchemaLocation="http://sumo.dlr.de/xsd/sumoConfiguration.xsd">

    <input>
        <net-file value="/home/yuwz/graduation_design/DDPG5/rou_net2_double/intersection1.net.xml"/>
        <route-files value="/home/yuwz/graduation_design/DDPG5/rou_net2_double/intersection1.rou.xml"/>
    </input>

    <output>
        <tripinfo-output value="/home/yuwz/graduation_design/DDPG5/rou_net2_double/tripinfo.xml"/>
    </output>

    <time>
        <begin value="0"/>
        <end value="3600"/>
        <step-length value="1"/>
    </time>

    <processing>
        <waiting-time-memory value="3600"/>
    </processing>

    <report>
        <no-step-log value="true"/>
    </report>

    <traci_server>
        <remote-port value="32931"/>
    </traci_server>

</configuration>
-->

<tripinfos xmlns:xsi="http://www.w3.org/2001/XMLSchema-instance" xsi:noNamespaceSchemaLocation="http://sumo.dlr.de/xsd/tripinfo_file.xsd">
    <tripinfo id="W2E_2" depart="49.00" departLane="WE0_0" departPos="5.00" departSpeed="10.00" departDelay="0.00" arrival="298.00" arrivalLane="WE2_0" arrivalPos="892.80" arrivalSpeed="13.03" duration="249.00" routeLength="2695.00" waitingTime="16.00" waitingCount="1" stopTime="0.00" timeLoss="83.52" rerouteNo="0" devices="tripinfo_W2E_2 battery_W2E_2" vType="ego_car" speedFactor="0.94" vaporized=""/>
    <tripinfo id="W2E_3" depart="56.00" departLane="WE0_0" departPos="5.00" departSpeed="10.00" departDelay="0.00" arrival="299.00" arrivalLane="WE2_0" arrivalPos="892.80" arrivalSpeed="14.03" duration="243.00" routeLength="2695.00" waitingTime="12.00" waitingCount="1" stopTime="0.00" timeLoss="88.81" rerouteNo="0" devices="tripinfo_W2E_3 battery_W2E_3" vType="ego_car" speedFactor="1.01" vaporized=""/>
    <tripinfo id="E2W_1" depart="23.00" departLane="EW0_0" departPos="5.00" departSpeed="10.00" departDelay="0.00" arrival="665.00" arrivalLane="EW2_0" arrivalPos="892.80" arrivalSpeed="20.00" duration="642.00" routeLength="2695.00" waitingTime="278.00" waitingCount="32" stopTime="0.00" timeLoss="490.83" rerouteNo="0" devices="tripinfo_E2W_1 battery_E2W_1" vType="ego_car" speedFactor="1.06" vaporized=""/>
    <tripinfo id="E2W_4" depart="119.00" departLane="EW0_0" departPos="5.00" departSpeed="10.00" departDelay="0.00" arrival="667.00" arrivalLane="EW2_0" arrivalPos="892.80" arrivalSpeed="20.00" duration="548.00" routeLength="2695.00" waitingTime="244.00" waitingCount="26" stopTime="0.00" timeLoss="397.66" rerouteNo="0" devices="tripinfo_E2W_4 battery_E2W_4" vType="ego_car" speedFactor="1.08" vaporized=""/>
    <tripinfo id="E2W_6" depart="136.00" departLane="EW0_0" departPos="5.00" departSpeed="10.00" departDelay="0.00" arrival="676.00" arrivalLane="EW2_0" arrivalPos="892.80" arrivalSpeed="16.62" duration="540.00" routeLength="2695.00" waitingTime="215.00" waitingCount="22" stopTime="0.00" timeLoss="354.01" rerouteNo="0" devices="tripinfo_E2W_6 battery_E2W_6" vType="ego_car" speedFactor="0.83" vaporized=""/>
    <tripinfo id="W2E_5" depart="134.00" departLane="WE0_0" departPos="5.00" departSpeed="10.00" departDelay="0.00" arrival="682.00" arrivalLane="WE2_0" arrivalPos="892.80" arrivalSpeed="14.31" duration="548.00" routeLength="2695.00" waitingTime="241.00" waitingCount="28" stopTime="0.00" timeLoss="394.43" rerouteNo="0" devices="tripinfo_W2E_5 battery_W2E_5" vType="ego_car" speedFactor="1.03" vaporized=""/>
    <tripinfo id="W2E_7" depart="172.00" departLane="WE0_0" departPos="5.00" departSpeed="10.00" departDelay="0.00" arrival="683.00" arrivalLane="WE2_0" arrivalPos="892.80" arrivalSpeed="14.53" duration="511.00" routeLength="2695.00" waitingTime="228.00" waitingCount="23" stopTime="0.00" timeLoss="358.79" rerouteNo="0" devices="tripinfo_W2E_7 battery_W2E_7" vType="ego_car" speedFactor="1.05" vaporized=""/>
    <tripinfo id="W2E_8" depart="183.00" departLane="WE0_0" departPos="5.00" departSpeed="10.00" departDelay="0.00" arrival="694.00" arrivalLane="WE2_0" arrivalPos="892.80" arrivalSpeed="12.31" duration="511.00" routeLength="2695.00" waitingTime="209.00" waitingCount="21" stopTime="0.00" timeLoss="336.37" rerouteNo="0" devices="tripinfo_W2E_8 battery_W2E_8" vType="ego_car" speedFactor="0.89" vaporized=""/>
    <tripinfo id="W2E_9" depart="188.00" departLane="WE0_0" departPos="5.00" departSpeed="10.00" departDelay="0.00" arrival="696.00" arrivalLane="WE2_0" arrivalPos="892.80" arrivalSpeed="13.03" duration="508.00" routeLength="2695.00" waitingTime="200.00" waitingCount="18" stopTime="0.00" timeLoss="342.35" rerouteNo="0" devices="tripinfo_W2E_9 battery_W2E_9" vType="ego_car" speedFactor="0.94" vaporized=""/>
</tripinfos>
