<?xml version="1.0" encoding="UTF-8"?>

<!-- generated on 2023-04-17 20:26:43 by Eclipse SUMO sumo Version 1.13.0
<configuration xmlns:xsi="http://www.w3.org/2001/XMLSchema-instance" xsi:noNamespaceSchemaLocation="http://sumo.dlr.de/xsd/sumoConfiguration.xsd">

    <input>
        <net-file value="/home/yuwz/graduation_design/DDPG5/rou_net2/intersection1.net.xml"/>
        <route-files value="/home/yuwz/graduation_design/DDPG5/rou_net2/intersection80.rou.xml"/>
    </input>

    <output>
        <tripinfo-output value="/home/yuwz/graduation_design/DDPG5/rou_net2/tripinfo.xml"/>
    </output>

    <time>
        <begin value="0"/>
        <end value="3600"/>
        <step-length value="1"/>
    </time>

    <processing>
        <waiting-time-memory value="3600"/>
    </processing>

    <report>
        <no-step-log value="true"/>
    </report>

    <traci_server>
        <remote-port value="33359"/>
    </traci_server>

    <gui_only>
        <tracker-interval value="1"/>
    </gui_only>

</configuration>
-->

<tripinfos xmlns:xsi="http://www.w3.org/2001/XMLSchema-instance" xsi:noNamespaceSchemaLocation="http://sumo.dlr.de/xsd/tripinfo_file.xsd">
    <tripinfo id="W2E_1" depart="42.00" departLane="WE0_0" departPos="5.00" departSpeed="10.00" departDelay="0.00" arrival="182.00" arrivalLane="WE1_0" arrivalPos="892.80" arrivalSpeed="20.00" duration="140.00" routeLength="1795.00" waitingTime="0.00" waitingCount="0" stopTime="0.00" timeLoss="49.36" rerouteNo="0" devices="tripinfo_W2E_1 battery_W2E_1" vType="ego_car" speedFactor="1.06" vaporized=""/>
    <tripinfo id="E2W_2" depart="45.00" departLane="EW0_0" departPos="5.00" departSpeed="10.00" departDelay="0.00" arrival="185.00" arrivalLane="EW1_0" arrivalPos="892.80" arrivalSpeed="18.77" duration="140.00" routeLength="1795.00" waitingTime="0.00" waitingCount="0" stopTime="0.00" timeLoss="43.91" rerouteNo="0" devices="tripinfo_E2W_2 battery_E2W_2" vType="ego_car" speedFactor="0.94" vaporized=""/>
    <tripinfo id="W2E_3" depart="120.00" departLane="WE0_0" departPos="5.00" departSpeed="10.00" departDelay="0.00" arrival="212.00" arrivalLane="WE1_0" arrivalPos="892.80" arrivalSpeed="20.00" duration="92.00" routeLength="1795.00" waitingTime="0.00" waitingCount="0" stopTime="0.00" timeLoss="1.89" rerouteNo="0" devices="tripinfo_W2E_3 battery_W2E_3" vType="ego_car" speedFactor="1.01" vaporized=""/>
    <tripinfo id="W2E_4" depart="141.00" departLane="WE0_0" departPos="5.00" departSpeed="10.00" departDelay="0.00" arrival="272.00" arrivalLane="WE1_0" arrivalPos="892.80" arrivalSpeed="20.00" duration="131.00" routeLength="1795.00" waitingTime="0.00" waitingCount="0" stopTime="0.00" timeLoss="40.73" rerouteNo="0" devices="tripinfo_W2E_4 battery_W2E_4" vType="ego_car" speedFactor="1.08" vaporized=""/>
    <tripinfo id="E2W_5" depart="143.00" departLane="EW0_0" departPos="5.00" departSpeed="10.00" departDelay="0.00" arrival="272.00" arrivalLane="EW1_0" arrivalPos="892.80" arrivalSpeed="20.00" duration="129.00" routeLength="1795.00" waitingTime="0.00" waitingCount="0" stopTime="0.00" timeLoss="38.80" rerouteNo="0" devices="tripinfo_E2W_5 battery_E2W_5" vType="ego_car" speedFactor="1.03" vaporized=""/>
    <tripinfo id="W2E_10" depart="173.00" departLane="WE0_0" departPos="5.00" departSpeed="10.00" departDelay="0.00" arrival="281.00" arrivalLane="WE1_0" arrivalPos="892.80" arrivalSpeed="17.14" duration="108.00" routeLength="1795.00" waitingTime="0.00" waitingCount="0" stopTime="0.00" timeLoss="2.27" rerouteNo="0" devices="tripinfo_W2E_10 battery_W2E_10" vType="ego_car" speedFactor="0.86" vaporized=""/>
    <tripinfo id="E2W_6" depart="152.00" departLane="EW0_0" departPos="5.00" departSpeed="10.00" departDelay="0.00" arrival="282.00" arrivalLane="EW1_0" arrivalPos="892.80" arrivalSpeed="16.62" duration="130.00" routeLength="1795.00" waitingTime="0.00" waitingCount="0" stopTime="0.00" timeLoss="21.42" rerouteNo="0" devices="tripinfo_E2W_6 battery_E2W_6" vType="ego_car" speedFactor="0.83" vaporized=""/>
    <tripinfo id="W2E_11" depart="176.00" departLane="WE0_0" departPos="5.00" departSpeed="10.00" departDelay="0.00" arrival="282.00" arrivalLane="WE1_0" arrivalPos="892.80" arrivalSpeed="18.64" duration="106.00" routeLength="1795.00" waitingTime="0.00" waitingCount="0" stopTime="0.00" timeLoss="15.62" rerouteNo="0" devices="tripinfo_W2E_11 battery_W2E_11" vType="ego_car" speedFactor="1.09" vaporized=""/>
    <tripinfo id="E2W_7" depart="160.00" departLane="EW0_0" departPos="5.00" departSpeed="10.00" departDelay="0.00" arrival="283.00" arrivalLane="EW1_0" arrivalPos="892.80" arrivalSpeed="18.12" duration="123.00" routeLength="1795.00" waitingTime="0.00" waitingCount="0" stopTime="0.00" timeLoss="32.99" rerouteNo="0" devices="tripinfo_E2W_7 battery_E2W_7" vType="ego_car" speedFactor="1.05" vaporized=""/>
    <tripinfo id="E2W_8" depart="169.00" departLane="EW0_0" departPos="5.00" departSpeed="10.00" departDelay="0.00" arrival="285.00" arrivalLane="EW1_0" arrivalPos="892.80" arrivalSpeed="17.72" duration="116.00" routeLength="1795.00" waitingTime="0.00" waitingCount="0" stopTime="0.00" timeLoss="13.76" rerouteNo="0" devices="tripinfo_E2W_8 battery_E2W_8" vType="ego_car" speedFactor="0.89" vaporized=""/>
    <tripinfo id="E2W_9" depart="172.00" departLane="EW0_0" departPos="5.00" departSpeed="10.00" departDelay="0.00" arrival="286.00" arrivalLane="EW1_0" arrivalPos="892.80" arrivalSpeed="18.76" duration="114.00" routeLength="1795.00" waitingTime="0.00" waitingCount="0" stopTime="0.00" timeLoss="17.68" rerouteNo="0" devices="tripinfo_E2W_9 battery_E2W_9" vType="ego_car" speedFactor="0.94" vaporized=""/>
    <tripinfo id="E2W_12" depart="177.00" departLane="EW0_0" departPos="5.00" departSpeed="10.00" departDelay="0.00" arrival="287.00" arrivalLane="EW1_0" arrivalPos="892.80" arrivalSpeed="19.22" duration="110.00" routeLength="1795.00" waitingTime="0.00" waitingCount="0" stopTime="0.00" timeLoss="19.93" rerouteNo="0" devices="tripinfo_E2W_12 battery_E2W_12" vType="ego_car" speedFactor="1.03" vaporized=""/>
    <tripinfo id="E2W_13" depart="179.00" departLane="EW0_0" departPos="5.00" departSpeed="10.00" departDelay="0.00" arrival="288.00" arrivalLane="EW1_0" arrivalPos="892.80" arrivalSpeed="19.22" duration="109.00" routeLength="1795.00" waitingTime="0.00" waitingCount="0" stopTime="0.00" timeLoss="19.23" rerouteNo="0" devices="tripinfo_E2W_13 battery_E2W_13" vType="ego_car" speedFactor="1.05" vaporized=""/>
    <tripinfo id="W2E_14" depart="207.00" departLane="WE0_0" departPos="5.00" departSpeed="10.00" departDelay="0.00" arrival="301.00" arrivalLane="WE1_0" arrivalPos="892.80" arrivalSpeed="20.00" duration="94.00" routeLength="1795.00" waitingTime="0.00" waitingCount="0" stopTime="0.00" timeLoss="3.70" rerouteNo="0" devices="tripinfo_W2E_14 battery_W2E_14" vType="ego_car" speedFactor="1.12" vaporized=""/>
    <tripinfo id="E2W_15" depart="211.00" departLane="EW0_0" departPos="5.00" departSpeed="10.00" departDelay="0.00" arrival="305.00" arrivalLane="EW1_0" arrivalPos="892.80" arrivalSpeed="19.82" duration="94.00" routeLength="1795.00" waitingTime="0.00" waitingCount="0" stopTime="0.00" timeLoss="3.29" rerouteNo="0" devices="tripinfo_E2W_15 battery_E2W_15" vType="ego_car" speedFactor="0.99" vaporized=""/>
    <tripinfo id="W2E_16" depart="233.00" departLane="WE0_0" departPos="5.00" departSpeed="10.00" departDelay="0.00" arrival="365.00" arrivalLane="WE1_0" arrivalPos="892.80" arrivalSpeed="18.54" duration="132.00" routeLength="1795.00" waitingTime="0.00" waitingCount="0" stopTime="0.00" timeLoss="35.04" rerouteNo="0" devices="tripinfo_W2E_16 battery_W2E_16" vType="ego_car" speedFactor="0.93" vaporized=""/>
    <tripinfo id="W2E_18" depart="250.00" departLane="WE0_0" departPos="5.00" departSpeed="10.00" departDelay="0.00" arrival="367.00" arrivalLane="WE1_0" arrivalPos="892.80" arrivalSpeed="18.83" duration="117.00" routeLength="1795.00" waitingTime="0.00" waitingCount="0" stopTime="0.00" timeLoss="20.84" rerouteNo="0" devices="tripinfo_W2E_18 battery_W2E_18" vType="ego_car" speedFactor="0.94" vaporized=""/>
    <tripinfo id="E2W_17" depart="233.00" departLane="EW0_0" departPos="5.00" departSpeed="10.00" departDelay="0.00" arrival="368.00" arrivalLane="EW1_0" arrivalPos="892.80" arrivalSpeed="17.57" duration="135.00" routeLength="1795.00" waitingTime="0.00" waitingCount="0" stopTime="0.00" timeLoss="32.14" rerouteNo="0" devices="tripinfo_E2W_17 battery_E2W_17" vType="ego_car" speedFactor="0.88" vaporized=""/>
    <tripinfo id="W2E_19" depart="255.00" departLane="WE0_0" departPos="5.00" departSpeed="10.00" departDelay="0.00" arrival="368.00" arrivalLane="WE1_0" arrivalPos="892.80" arrivalSpeed="18.72" duration="113.00" routeLength="1795.00" waitingTime="0.00" waitingCount="0" stopTime="0.00" timeLoss="16.63" rerouteNo="0" devices="tripinfo_W2E_19 battery_W2E_19" vType="ego_car" speedFactor="0.94" vaporized=""/>
    <tripinfo id="E2W_20" depart="264.00" departLane="EW0_0" departPos="5.00" departSpeed="10.00" departDelay="0.00" arrival="369.00" arrivalLane="EW1_0" arrivalPos="892.80" arrivalSpeed="19.07" duration="105.00" routeLength="1795.00" waitingTime="0.00" waitingCount="0" stopTime="0.00" timeLoss="14.87" rerouteNo="0" devices="tripinfo_E2W_20 battery_E2W_20" vType="ego_car" speedFactor="1.16" vaporized=""/>
    <tripinfo id="W2E_21" depart="269.00" departLane="WE0_0" departPos="5.00" departSpeed="10.00" departDelay="0.00" arrival="369.00" arrivalLane="WE1_0" arrivalPos="892.80" arrivalSpeed="20.00" duration="100.00" routeLength="1795.00" waitingTime="0.00" waitingCount="0" stopTime="0.00" timeLoss="10.01" rerouteNo="0" devices="tripinfo_W2E_21 battery_W2E_21" vType="ego_car" speedFactor="1.02" vaporized=""/>
    <tripinfo id="W2E_22" depart="275.00" departLane="WE0_0" departPos="5.00" departSpeed="10.00" departDelay="0.00" arrival="371.00" arrivalLane="WE1_0" arrivalPos="892.80" arrivalSpeed="20.00" duration="96.00" routeLength="1795.00" waitingTime="0.00" waitingCount="0" stopTime="0.00" timeLoss="5.31" rerouteNo="0" devices="tripinfo_W2E_22 battery_W2E_22" vType="ego_car" speedFactor="1.01" vaporized=""/>
    <tripinfo id="E2W_23" depart="283.00" departLane="EW0_0" departPos="5.00" departSpeed="10.00" departDelay="0.00" arrival="377.00" arrivalLane="EW1_0" arrivalPos="892.80" arrivalSpeed="19.50" duration="94.00" routeLength="1795.00" waitingTime="0.00" waitingCount="0" stopTime="0.00" timeLoss="1.63" rerouteNo="0" devices="tripinfo_E2W_23 battery_E2W_23" vType="ego_car" speedFactor="0.97" vaporized=""/>
    <tripinfo id="W2E_24" depart="284.00" departLane="WE0_0" departPos="5.00" departSpeed="10.00" departDelay="0.00" arrival="387.00" arrivalLane="WE1_0" arrivalPos="892.80" arrivalSpeed="17.79" duration="103.00" routeLength="1795.00" waitingTime="0.00" waitingCount="0" stopTime="0.00" timeLoss="1.82" rerouteNo="0" devices="tripinfo_W2E_24 battery_W2E_24" vType="ego_car" speedFactor="0.89" vaporized=""/>
    <tripinfo id="E2W_26" depart="327.00" departLane="EW0_0" departPos="5.00" departSpeed="10.00" departDelay="0.00" arrival="458.00" arrivalLane="EW1_0" arrivalPos="892.80" arrivalSpeed="17.45" duration="131.00" routeLength="1795.00" waitingTime="0.00" waitingCount="0" stopTime="0.00" timeLoss="27.89" rerouteNo="0" devices="tripinfo_E2W_26 battery_E2W_26" vType="ego_car" speedFactor="0.87" vaporized=""/>
    <tripinfo id="E2W_27" depart="333.00" departLane="EW0_0" departPos="5.00" departSpeed="10.00" departDelay="0.00" arrival="460.00" arrivalLane="EW1_0" arrivalPos="892.80" arrivalSpeed="18.34" duration="127.00" routeLength="1795.00" waitingTime="0.00" waitingCount="0" stopTime="0.00" timeLoss="28.18" rerouteNo="0" devices="tripinfo_E2W_27 battery_E2W_27" vType="ego_car" speedFactor="0.92" vaporized=""/>
    <tripinfo id="W2E_25" depart="309.00" departLane="WE0_0" departPos="5.00" departSpeed="10.00" departDelay="0.00" arrival="461.00" arrivalLane="WE1_0" arrivalPos="892.80" arrivalSpeed="16.51" duration="152.00" routeLength="1795.00" waitingTime="0.00" waitingCount="0" stopTime="0.00" timeLoss="42.79" rerouteNo="0" devices="tripinfo_W2E_25 battery_W2E_25" vType="ego_car" speedFactor="0.83" vaporized=""/>
    <tripinfo id="E2W_28" depart="342.00" departLane="EW0_0" departPos="5.00" departSpeed="10.00" departDelay="0.00" arrival="461.00" arrivalLane="EW1_0" arrivalPos="892.80" arrivalSpeed="18.98" duration="119.00" routeLength="1795.00" waitingTime="0.00" waitingCount="0" stopTime="0.00" timeLoss="23.75" rerouteNo="0" devices="tripinfo_E2W_28 battery_E2W_28" vType="ego_car" speedFactor="0.95" vaporized=""/>
    <tripinfo id="W2E_29" depart="350.00" departLane="WE0_0" departPos="5.00" departSpeed="10.00" departDelay="0.00" arrival="462.00" arrivalLane="WE1_0" arrivalPos="892.80" arrivalSpeed="18.01" duration="112.00" routeLength="1795.00" waitingTime="0.00" waitingCount="0" stopTime="0.00" timeLoss="22.04" rerouteNo="0" devices="tripinfo_W2E_29 battery_W2E_29" vType="ego_car" speedFactor="1.13" vaporized=""/>
    <tripinfo id="W2E_30" depart="357.00" departLane="WE0_0" departPos="5.00" departSpeed="10.00" departDelay="0.00" arrival="464.00" arrivalLane="WE1_0" arrivalPos="892.80" arrivalSpeed="18.63" duration="107.00" routeLength="1795.00" waitingTime="0.00" waitingCount="0" stopTime="0.00" timeLoss="9.72" rerouteNo="0" devices="tripinfo_W2E_30 battery_W2E_30" vType="ego_car" speedFactor="0.93" vaporized=""/>
    <tripinfo id="W2E_31" depart="365.00" departLane="WE0_0" departPos="5.00" departSpeed="10.00" departDelay="0.00" arrival="465.00" arrivalLane="WE1_0" arrivalPos="892.80" arrivalSpeed="19.51" duration="100.00" routeLength="1795.00" waitingTime="0.00" waitingCount="0" stopTime="0.00" timeLoss="9.66" rerouteNo="0" devices="tripinfo_W2E_31 battery_W2E_31" vType="ego_car" speedFactor="1.18" vaporized=""/>
    <tripinfo id="W2E_32" depart="366.00" departLane="WE0_0" departPos="5.00" departSpeed="10.00" departDelay="1.00" arrival="466.00" arrivalLane="WE1_0" arrivalPos="892.80" arrivalSpeed="19.51" duration="100.00" routeLength="1795.00" waitingTime="0.00" waitingCount="0" stopTime="0.00" timeLoss="9.95" rerouteNo="0" devices="tripinfo_W2E_32 battery_W2E_32" vType="ego_car" speedFactor="1.15" vaporized=""/>
    <tripinfo id="W2E_33" depart="373.00" departLane="WE0_0" departPos="5.00" departSpeed="10.00" departDelay="0.00" arrival="468.00" arrivalLane="WE1_0" arrivalPos="892.80" arrivalSpeed="20.00" duration="95.00" routeLength="1795.00" waitingTime="0.00" waitingCount="0" stopTime="0.00" timeLoss="4.81" rerouteNo="0" devices="tripinfo_W2E_33 battery_W2E_33" vType="ego_car" speedFactor="1.01" vaporized=""/>
    <tripinfo id="E2W_34" depart="386.00" departLane="EW0_0" departPos="5.00" departSpeed="10.00" departDelay="0.00" arrival="478.00" arrivalLane="EW1_0" arrivalPos="892.80" arrivalSpeed="20.00" duration="92.00" routeLength="1795.00" waitingTime="0.00" waitingCount="0" stopTime="0.00" timeLoss="1.81" rerouteNo="0" devices="tripinfo_E2W_34 battery_E2W_34" vType="ego_car" speedFactor="1.17" vaporized=""/>
    <tripinfo id="E2W_35" depart="391.00" departLane="EW0_0" departPos="5.00" departSpeed="10.00" departDelay="0.00" arrival="484.00" arrivalLane="EW1_0" arrivalPos="892.80" arrivalSpeed="19.90" duration="93.00" routeLength="1795.00" waitingTime="0.00" waitingCount="0" stopTime="0.00" timeLoss="2.59" rerouteNo="0" devices="tripinfo_E2W_35 battery_E2W_35" vType="ego_car" speedFactor="0.99" vaporized=""/>
    <tripinfo id="E2W_36" depart="398.00" departLane="EW0_0" departPos="5.00" departSpeed="10.00" departDelay="0.00" arrival="542.00" arrivalLane="EW1_0" arrivalPos="892.80" arrivalSpeed="20.00" duration="144.00" routeLength="1795.00" waitingTime="0.00" waitingCount="0" stopTime="0.00" timeLoss="54.10" rerouteNo="0" devices="tripinfo_E2W_36 battery_E2W_36" vType="ego_car" speedFactor="1.02" vaporized=""/>
    <tripinfo id="W2E_38" depart="404.00" departLane="WE0_0" departPos="5.00" departSpeed="10.00" departDelay="0.00" arrival="542.00" arrivalLane="WE1_0" arrivalPos="892.80" arrivalSpeed="20.00" duration="138.00" routeLength="1795.00" waitingTime="0.00" waitingCount="0" stopTime="0.00" timeLoss="48.13" rerouteNo="0" devices="tripinfo_W2E_38 battery_W2E_38" vType="ego_car" speedFactor="1.18" vaporized=""/>
    <tripinfo id="W2E_41" depart="426.00" departLane="WE0_0" departPos="5.00" departSpeed="10.00" departDelay="0.00" arrival="544.00" arrivalLane="WE1_0" arrivalPos="892.80" arrivalSpeed="20.00" duration="118.00" routeLength="1795.00" waitingTime="0.00" waitingCount="0" stopTime="0.00" timeLoss="27.73" rerouteNo="0" devices="tripinfo_W2E_41 battery_W2E_41" vType="ego_car" speedFactor="1.03" vaporized=""/>
    <tripinfo id="E2W_37" depart="400.00" departLane="EW0_0" departPos="5.00" departSpeed="10.00" departDelay="1.00" arrival="545.00" arrivalLane="EW1_0" arrivalPos="892.80" arrivalSpeed="19.46" duration="145.00" routeLength="1795.00" waitingTime="0.00" waitingCount="0" stopTime="0.00" timeLoss="52.30" rerouteNo="0" devices="tripinfo_E2W_37 battery_E2W_37" vType="ego_car" speedFactor="0.97" vaporized=""/>
    <tripinfo id="W2E_44" depart="447.00" departLane="WE0_0" departPos="5.00" departSpeed="10.00" departDelay="0.00" arrival="545.00" arrivalLane="WE1_0" arrivalPos="892.80" arrivalSpeed="20.00" duration="98.00" routeLength="1795.00" waitingTime="0.00" waitingCount="0" stopTime="0.00" timeLoss="8.04" rerouteNo="0" devices="tripinfo_W2E_44 battery_W2E_44" vType="ego_car" speedFactor="1.04" vaporized=""/>
    <tripinfo id="E2W_39" depart="404.00" departLane="EW0_0" departPos="5.00" departSpeed="10.00" departDelay="0.00" arrival="546.00" arrivalLane="EW1_0" arrivalPos="892.80" arrivalSpeed="20.00" duration="142.00" routeLength="1795.00" waitingTime="0.00" waitingCount="0" stopTime="0.00" timeLoss="52.05" rerouteNo="0" devices="tripinfo_E2W_39 battery_E2W_39" vType="ego_car" speedFactor="1.10" vaporized=""/>
    <tripinfo id="W2E_47" depart="458.00" departLane="WE0_0" departPos="5.00" departSpeed="10.00" departDelay="0.00" arrival="550.00" arrivalLane="WE1_0" arrivalPos="892.80" arrivalSpeed="19.95" duration="92.00" routeLength="1795.00" waitingTime="0.00" waitingCount="0" stopTime="0.00" timeLoss="1.49" rerouteNo="0" devices="tripinfo_W2E_47 battery_W2E_47" vType="ego_car" speedFactor="1.00" vaporized=""/>
    <tripinfo id="E2W_40" depart="423.00" departLane="EW0_0" departPos="5.00" departSpeed="10.00" departDelay="0.00" arrival="551.00" arrivalLane="EW1_0" arrivalPos="892.80" arrivalSpeed="18.01" duration="128.00" routeLength="1795.00" waitingTime="0.00" waitingCount="0" stopTime="0.00" timeLoss="27.93" rerouteNo="0" devices="tripinfo_E2W_40 battery_E2W_40" vType="ego_car" speedFactor="0.90" vaporized=""/>
    <tripinfo id="E2W_42" depart="432.00" departLane="EW0_0" departPos="5.00" departSpeed="10.00" departDelay="0.00" arrival="552.00" arrivalLane="EW1_0" arrivalPos="892.80" arrivalSpeed="19.14" duration="120.00" routeLength="1795.00" waitingTime="0.00" waitingCount="0" stopTime="0.00" timeLoss="26.09" rerouteNo="0" devices="tripinfo_E2W_42 battery_E2W_42" vType="ego_car" speedFactor="0.96" vaporized=""/>
    <tripinfo id="E2W_43" depart="445.00" departLane="EW0_0" departPos="5.00" departSpeed="10.00" departDelay="0.00" arrival="554.00" arrivalLane="EW1_0" arrivalPos="892.80" arrivalSpeed="20.00" duration="109.00" routeLength="1795.00" waitingTime="0.00" waitingCount="0" stopTime="0.00" timeLoss="18.39" rerouteNo="0" devices="tripinfo_E2W_43 battery_E2W_43" vType="ego_car" speedFactor="1.09" vaporized=""/>
    <tripinfo id="E2W_45" depart="449.00" departLane="EW0_0" departPos="5.00" departSpeed="10.00" departDelay="0.00" arrival="555.00" arrivalLane="EW1_0" arrivalPos="892.80" arrivalSpeed="20.00" duration="106.00" routeLength="1795.00" waitingTime="0.00" waitingCount="0" stopTime="0.00" timeLoss="15.69" rerouteNo="0" devices="tripinfo_E2W_45 battery_E2W_45" vType="ego_car" speedFactor="1.04" vaporized=""/>
    <tripinfo id="E2W_46" depart="452.00" departLane="EW0_0" departPos="5.00" departSpeed="10.00" departDelay="0.00" arrival="556.00" arrivalLane="EW1_0" arrivalPos="892.80" arrivalSpeed="20.00" duration="104.00" routeLength="1795.00" waitingTime="0.00" waitingCount="0" stopTime="0.00" timeLoss="13.98" rerouteNo="0" devices="tripinfo_E2W_46 battery_E2W_46" vType="ego_car" speedFactor="1.09" vaporized=""/>
    <tripinfo id="W2E_48" depart="460.00" departLane="WE0_0" departPos="5.00" departSpeed="10.00" departDelay="1.00" arrival="564.00" arrivalLane="WE1_0" arrivalPos="892.80" arrivalSpeed="18.01" duration="104.00" routeLength="1795.00" waitingTime="0.00" waitingCount="0" stopTime="0.00" timeLoss="4.01" rerouteNo="0" devices="tripinfo_W2E_48 battery_W2E_48" vType="ego_car" speedFactor="0.90" vaporized=""/>
    <tripinfo id="E2W_49" depart="462.00" departLane="EW0_0" departPos="5.00" departSpeed="10.00" departDelay="0.00" arrival="566.00" arrivalLane="EW1_0" arrivalPos="892.80" arrivalSpeed="17.54" duration="104.00" routeLength="1795.00" waitingTime="0.00" waitingCount="0" stopTime="0.00" timeLoss="0.74" rerouteNo="0" devices="tripinfo_E2W_49 battery_E2W_49" vType="ego_car" speedFactor="0.88" vaporized=""/>
    <tripinfo id="E2W_50" depart="464.00" departLane="EW0_0" departPos="5.00" departSpeed="10.00" departDelay="2.00" arrival="571.00" arrivalLane="EW1_0" arrivalPos="892.80" arrivalSpeed="17.01" duration="107.00" routeLength="1795.00" waitingTime="0.00" waitingCount="0" stopTime="0.00" timeLoss="0.62" rerouteNo="0" devices="tripinfo_E2W_50 battery_E2W_50" vType="ego_car" speedFactor="0.85" vaporized=""/>
    <tripinfo id="E2W_51" depart="476.00" departLane="EW0_0" departPos="5.00" departSpeed="10.00" departDelay="0.00" arrival="582.00" arrivalLane="EW1_0" arrivalPos="892.80" arrivalSpeed="17.10" duration="106.00" routeLength="1795.00" waitingTime="0.00" waitingCount="0" stopTime="0.00" timeLoss="0.63" rerouteNo="0" devices="tripinfo_E2W_51 battery_E2W_51" vType="ego_car" speedFactor="0.85" vaporized=""/>
    <tripinfo id="E2W_52" depart="488.00" departLane="EW0_0" departPos="5.00" departSpeed="10.00" departDelay="0.00" arrival="633.00" arrivalLane="EW1_0" arrivalPos="892.80" arrivalSpeed="20.00" duration="145.00" routeLength="1795.00" waitingTime="0.00" waitingCount="0" stopTime="0.00" timeLoss="54.59" rerouteNo="0" devices="tripinfo_E2W_52 battery_E2W_52" vType="ego_car" speedFactor="1.17" vaporized=""/>
    <tripinfo id="W2E_53" depart="493.00" departLane="WE0_0" departPos="5.00" departSpeed="10.00" departDelay="0.00" arrival="633.00" arrivalLane="WE1_0" arrivalPos="892.80" arrivalSpeed="20.00" duration="140.00" routeLength="1795.00" waitingTime="0.00" waitingCount="0" stopTime="0.00" timeLoss="49.55" rerouteNo="0" devices="tripinfo_W2E_53 battery_W2E_53" vType="ego_car" speedFactor="1.02" vaporized=""/>
    <tripinfo id="W2E_54" depart="496.00" departLane="WE0_0" departPos="5.00" departSpeed="10.00" departDelay="2.00" arrival="634.00" arrivalLane="WE1_0" arrivalPos="892.80" arrivalSpeed="20.00" duration="138.00" routeLength="1795.00" waitingTime="0.00" waitingCount="0" stopTime="0.00" timeLoss="47.85" rerouteNo="0" devices="tripinfo_W2E_54 battery_W2E_54" vType="ego_car" speedFactor="1.10" vaporized=""/>
    <tripinfo id="E2W_55" depart="497.00" departLane="EW0_0" departPos="5.00" departSpeed="10.00" departDelay="0.00" arrival="634.00" arrivalLane="EW1_0" arrivalPos="892.80" arrivalSpeed="20.00" duration="137.00" routeLength="1795.00" waitingTime="0.00" waitingCount="0" stopTime="0.00" timeLoss="46.89" rerouteNo="0" devices="tripinfo_E2W_55 battery_E2W_55" vType="ego_car" speedFactor="1.00" vaporized=""/>
    <tripinfo id="E2W_56" depart="499.00" departLane="EW0_0" departPos="5.00" departSpeed="10.00" departDelay="1.00" arrival="636.00" arrivalLane="EW1_0" arrivalPos="892.80" arrivalSpeed="19.92" duration="137.00" routeLength="1795.00" waitingTime="0.00" waitingCount="0" stopTime="0.00" timeLoss="45.99" rerouteNo="0" devices="tripinfo_E2W_56 battery_E2W_56" vType="ego_car" speedFactor="1.00" vaporized=""/>
    <tripinfo id="E2W_62" depart="535.00" departLane="EW0_0" departPos="5.00" departSpeed="10.00" departDelay="0.00" arrival="637.00" arrivalLane="EW1_0" arrivalPos="892.80" arrivalSpeed="20.00" duration="102.00" routeLength="1795.00" waitingTime="0.00" waitingCount="0" stopTime="0.00" timeLoss="11.64" rerouteNo="0" devices="tripinfo_E2W_62 battery_E2W_62" vType="ego_car" speedFactor="1.12" vaporized=""/>
    <tripinfo id="E2W_64" depart="537.00" departLane="EW0_0" departPos="5.00" departSpeed="10.00" departDelay="1.00" arrival="639.00" arrivalLane="EW1_0" arrivalPos="892.80" arrivalSpeed="19.74" duration="102.00" routeLength="1795.00" waitingTime="0.00" waitingCount="0" stopTime="0.00" timeLoss="10.14" rerouteNo="0" devices="tripinfo_E2W_64 battery_E2W_64" vType="ego_car" speedFactor="0.99" vaporized=""/>
    <tripinfo id="W2E_57" depart="509.00" departLane="WE0_0" departPos="5.00" departSpeed="10.00" departDelay="0.00" arrival="640.00" arrivalLane="WE1_0" arrivalPos="892.80" arrivalSpeed="17.98" duration="131.00" routeLength="1795.00" waitingTime="0.00" waitingCount="0" stopTime="0.00" timeLoss="30.69" rerouteNo="0" devices="tripinfo_W2E_57 battery_W2E_57" vType="ego_car" speedFactor="0.90" vaporized=""/>
    <tripinfo id="W2E_58" depart="518.00" departLane="WE0_0" departPos="5.00" departSpeed="10.00" departDelay="0.00" arrival="641.00" arrivalLane="WE1_0" arrivalPos="892.80" arrivalSpeed="19.48" duration="123.00" routeLength="1795.00" waitingTime="0.00" waitingCount="0" stopTime="0.00" timeLoss="33.05" rerouteNo="0" devices="tripinfo_W2E_58 battery_W2E_58" vType="ego_car" speedFactor="1.14" vaporized=""/>
    <tripinfo id="W2E_59" depart="521.00" departLane="WE0_0" departPos="5.00" departSpeed="10.00" departDelay="0.00" arrival="643.00" arrivalLane="WE1_0" arrivalPos="892.80" arrivalSpeed="20.00" duration="122.00" routeLength="1795.00" waitingTime="0.00" waitingCount="0" stopTime="0.00" timeLoss="31.35" rerouteNo="0" devices="tripinfo_W2E_59 battery_W2E_59" vType="ego_car" speedFactor="1.02" vaporized=""/>
    <tripinfo id="E2W_68" depart="539.00" departLane="EW0_0" departPos="5.00" departSpeed="10.00" departDelay="0.00" arrival="643.00" arrivalLane="EW1_0" arrivalPos="892.80" arrivalSpeed="18.29" duration="104.00" routeLength="1795.00" waitingTime="0.00" waitingCount="0" stopTime="0.00" timeLoss="5.64" rerouteNo="0" devices="tripinfo_E2W_68 battery_E2W_68" vType="ego_car" speedFactor="0.91" vaporized=""/>
    <tripinfo id="W2E_60" depart="522.00" departLane="WE0_0" departPos="5.00" departSpeed="10.00" departDelay="0.00" arrival="644.00" arrivalLane="WE1_0" arrivalPos="892.80" arrivalSpeed="19.39" duration="122.00" routeLength="1795.00" waitingTime="0.00" waitingCount="0" stopTime="0.00" timeLoss="28.84" rerouteNo="0" devices="tripinfo_W2E_60 battery_W2E_60" vType="ego_car" speedFactor="0.97" vaporized=""/>
    <tripinfo id="W2E_61" depart="530.00" departLane="WE0_0" departPos="5.00" departSpeed="10.00" departDelay="0.00" arrival="645.00" arrivalLane="WE1_0" arrivalPos="892.80" arrivalSpeed="20.00" duration="115.00" routeLength="1795.00" waitingTime="0.00" waitingCount="0" stopTime="0.00" timeLoss="24.94" rerouteNo="0" devices="tripinfo_W2E_61 battery_W2E_61" vType="ego_car" speedFactor="1.08" vaporized=""/>
    <tripinfo id="E2W_70" depart="540.00" departLane="EW0_0" departPos="5.00" departSpeed="10.00" departDelay="0.00" arrival="645.00" arrivalLane="EW1_0" arrivalPos="892.80" arrivalSpeed="20.00" duration="105.00" routeLength="1795.00" waitingTime="0.00" waitingCount="0" stopTime="0.00" timeLoss="14.26" rerouteNo="0" devices="tripinfo_E2W_70 battery_E2W_70" vType="ego_car" speedFactor="1.02" vaporized=""/>
    <tripinfo id="W2E_63" depart="536.00" departLane="WE0_0" departPos="5.00" departSpeed="10.00" departDelay="0.00" arrival="646.00" arrivalLane="WE1_0" arrivalPos="892.80" arrivalSpeed="20.00" duration="110.00" routeLength="1795.00" waitingTime="0.00" waitingCount="0" stopTime="0.00" timeLoss="20.24" rerouteNo="0" devices="tripinfo_W2E_63 battery_W2E_63" vType="ego_car" speedFactor="1.02" vaporized=""/>
    <tripinfo id="W2E_65" depart="538.00" departLane="WE0_0" departPos="5.00" departSpeed="10.00" departDelay="1.00" arrival="648.00" arrivalLane="WE1_0" arrivalPos="892.80" arrivalSpeed="18.75" duration="110.00" routeLength="1795.00" waitingTime="0.00" waitingCount="0" stopTime="0.00" timeLoss="13.68" rerouteNo="0" devices="tripinfo_W2E_65 battery_W2E_65" vType="ego_car" speedFactor="0.94" vaporized=""/>
    <tripinfo id="W2E_66" depart="539.00" departLane="WE0_0" departPos="5.00" departSpeed="10.00" departDelay="2.00" arrival="651.00" arrivalLane="WE1_0" arrivalPos="892.80" arrivalSpeed="17.65" duration="112.00" routeLength="1795.00" waitingTime="0.00" waitingCount="0" stopTime="0.00" timeLoss="9.40" rerouteNo="0" devices="tripinfo_W2E_66 battery_W2E_66" vType="ego_car" speedFactor="0.88" vaporized=""/>
    <tripinfo id="W2E_67" depart="541.00" departLane="WE0_0" departPos="5.00" departSpeed="10.00" departDelay="3.00" arrival="652.00" arrivalLane="WE1_0" arrivalPos="892.80" arrivalSpeed="18.14" duration="111.00" routeLength="1795.00" waitingTime="0.00" waitingCount="0" stopTime="0.00" timeLoss="11.47" rerouteNo="0" devices="tripinfo_W2E_67 battery_W2E_67" vType="ego_car" speedFactor="0.91" vaporized=""/>
    <tripinfo id="W2E_69" depart="542.00" departLane="WE0_0" departPos="5.00" departSpeed="10.00" departDelay="2.00" arrival="653.00" arrivalLane="WE1_0" arrivalPos="892.80" arrivalSpeed="19.15" duration="111.00" routeLength="1795.00" waitingTime="0.00" waitingCount="0" stopTime="0.00" timeLoss="20.99" rerouteNo="0" devices="tripinfo_W2E_69 battery_W2E_69" vType="ego_car" speedFactor="1.04" vaporized=""/>